[Molden Format]
[FR-COORD] # Coordinates in bohr
  H    -1.906304    +0.000001    -3.749354 
  C    -1.906304    +0.000001    -1.697565 
  C    +0.828080    +0.000001    -0.692140 
  H    -2.906631    +1.665028    -1.037720 
  H    -2.906631    -1.665027    -1.037718 
  O    +0.744348    -0.000002    +2.019326 
  H    +1.827273    -1.669549    -1.409745 
  H    +1.827269    +1.669557    -1.409737 
  H    +2.546909    -0.000002    +2.526906 
[FREQ] # Frequencies in cm^-1
  224.1157
  263.9861
  429.2416
  951.7027
 1040.5584
 1122.8050
 1297.9405
 1345.3792
 1427.8614
 1510.8959
 1681.2556
 1744.2397
 1819.8962
 1825.3087
 1850.8169
 3079.8050
 3539.8889
 3574.1117
 3650.7616
 3758.7556
 3761.1119
[FR-NORM-COORD] # Displacements in bohr
vibration  1
      +0.000     +0.535     -0.000
      -0.000     -0.017     -0.000
      -0.000     -0.206     -0.000
      -0.105     -0.242     +0.439
      +0.105     -0.242     -0.439
      +0.000     +0.290     +0.000
      -0.052     -0.118     +0.066
      +0.052     -0.118     -0.066
      +0.000     -0.142     -0.000
vibration  2
      +0.000     -0.154     -0.000
      -0.000     -0.134     -0.000
      -0.000     +0.201     +0.000
      -0.037     -0.024     -0.093
      +0.037     -0.024     +0.093
      +0.000     +0.271     +0.000
      +0.037     +0.081     +0.005
      -0.037     +0.081     -0.005
      +0.000     -0.899     -0.000
vibration  3
      -0.206     -0.000     +0.122
      +0.162     -0.000     +0.415
      +0.342     +0.000     -0.235
      +0.130     -0.005     +0.258
      +0.130     +0.005     +0.258
      -0.419     +0.000     -0.351
      +0.103     -0.007     -0.046
      +0.103     +0.007     -0.046
      -0.233     -0.000     +0.163
vibration  4
      -0.000     +0.173     -0.000
      -0.000     -0.139     -0.000
      +0.000     -0.245     -0.000
      +0.409     +0.166     +0.104
      -0.409     +0.166     -0.104
      +0.000     +0.105     +0.000
      +0.428     +0.215     -0.064
      -0.428     +0.215     +0.064
      -0.000     -0.023     +0.000
vibration  5
      +0.357     +0.000     +0.088
      +0.420     -0.000     +0.281
      -0.339     -0.000     +0.165
      +0.096     +0.014     -0.011
      +0.096     -0.014     -0.011
      -0.177     +0.000     -0.219
      -0.110     +0.001     +0.043
      -0.110     -0.001     +0.043
      +0.068     +0.000     -0.580
vibration  6
      -0.520     -0.000     -0.086
      +0.062     +0.000     -0.294
      +0.011     +0.000     -0.066
      +0.164     -0.033     +0.222
      +0.164     +0.033     +0.222
      -0.129     -0.000     +0.322
      +0.127     +0.002     +0.155
      +0.127     -0.002     +0.155
      +0.141     +0.000     -0.503
vibration  7
      -0.033     -0.000     -0.009
      +0.354     +0.000     -0.046
      -0.377     -0.000     -0.378
      +0.203     -0.002     +0.119
      +0.203     +0.002     +0.119
      +0.054     +0.000     +0.342
      -0.246     -0.001     -0.272
      -0.246     +0.001     -0.272
      -0.010     -0.000     +0.294
vibration  8
      -0.000     +0.141     -0.000
      +0.000     -0.249     -0.000
      -0.000     +0.449     +0.000
      +0.278     +0.071     +0.062
      -0.278     +0.071     -0.062
      +0.000     -0.180     -0.000
      -0.092     -0.125     +0.481
      +0.092     -0.125     -0.481
      -0.000     -0.005     +0.000
vibration  9
      +0.254     +0.000     +0.066
      -0.128     -0.000     +0.232
      +0.314     +0.000     -0.448
      -0.145     +0.037     -0.181
      -0.145     -0.037     -0.181
      -0.220     -0.000     +0.465
      +0.073     +0.007     -0.183
      +0.073     -0.007     -0.183
      +0.090     +0.000     -0.317
vibration  10
      +0.000     -0.109     +0.000
      -0.000     +0.317     +0.000
      +0.000     -0.170     -0.000
      -0.287     -0.052     -0.056
      +0.287     -0.052     +0.056
      -0.000     -0.074     +0.000
      +0.400     +0.008     +0.422
      -0.400     +0.008     -0.422
      +0.000     -0.011     -0.000
vibration  11
      -0.393     -0.000     -0.014
      +0.225     +0.000     -0.036
      +0.280     -0.000     +0.379
      -0.225     -0.141     -0.090
      -0.225     +0.141     -0.090
      -0.085     -0.000     -0.028
      -0.279     -0.022     -0.339
      -0.279     +0.022     -0.339
      -0.002     +0.000     -0.140
vibration  12
      +0.395     +0.000     -0.068
      -0.384     -0.000     -0.229
      +0.260     -0.000     +0.269
      +0.272     +0.092     +0.287
      +0.272     -0.092     +0.287
      -0.066     -0.000     +0.002
      -0.127     +0.014     -0.245
      -0.127     -0.014     -0.245
      +0.004     +0.000     -0.115
vibration  13
      -0.000     -0.716     +0.000
      -0.000     +0.195     +0.000
      +0.000     +0.046     +0.000
      +0.128     -0.051     +0.452
      -0.128     -0.051     -0.452
      -0.000     -0.005     -0.000
      -0.022     +0.002     +0.005
      +0.022     +0.002     -0.005
      +0.000     -0.001     -0.000
vibration  14
      -0.254     +0.000     +0.031
      -0.116     -0.000     +0.130
      +0.152     -0.000     -0.001
      +0.312     +0.346     -0.322
      +0.312     -0.346     -0.322
      -0.003     +0.000     -0.012
      -0.244     -0.216     +0.118
      -0.244     +0.216     +0.118
      +0.003     +0.000     -0.015
vibration  15
      +0.196     -0.000     -0.024
      +0.021     +0.000     -0.085
      +0.199     +0.000     -0.213
      -0.166     -0.189     +0.192
      -0.166     +0.189     +0.192
      +0.003     -0.000     +0.021
      -0.327     -0.376     +0.291
      -0.327     +0.376     +0.291
      +0.013     +0.000     -0.000
vibration  16
      -0.000     +0.000     +0.002
      +0.001     +0.000     +0.000
      -0.000     -0.000     +0.025
      +0.000     +0.000     +0.001
      +0.000     -0.000     +0.001
      -0.319     -0.000     -0.118
      -0.005     +0.013     +0.006
      -0.005     -0.013     +0.006
      +0.903     +0.000     +0.259
vibration  17
      +0.004     -0.000     -0.032
      -0.005     +0.000     +0.007
      +0.198     -0.000     -0.135
      -0.010     +0.008     +0.003
      -0.010     -0.008     +0.003
      +0.005     +0.000     +0.001
      -0.323     +0.557     +0.236
      -0.323     -0.557     +0.236
      -0.016     -0.000     -0.005
vibration  18
      -0.003     +0.000     +0.577
      -0.169     -0.000     -0.066
      +0.017     +0.000     -0.001
      +0.271     -0.458     -0.183
      +0.271     +0.458     -0.183
      +0.001     -0.000     +0.001
      -0.008     +0.018     +0.008
      -0.008     -0.018     +0.008
      -0.001     -0.000     -0.000
vibration  19
      -0.000     -0.002     -0.000
      +0.000     -0.020     -0.000
      +0.000     +0.317     +0.000
      -0.014     +0.031     +0.015
      +0.014     +0.031     -0.015
      +0.000     -0.000     -0.000
      +0.323     -0.540     -0.229
      -0.323     -0.540     +0.229
      -0.000     -0.003     -0.000
vibration  20
      +0.003     -0.000     -0.767
      -0.111     -0.000     +0.296
      -0.003     -0.000     +0.002
      +0.190     -0.323     -0.124
      +0.190     +0.323     -0.124
      -0.002     -0.000     -0.001
      +0.008     -0.009     -0.004
      +0.008     +0.009     -0.004
      +0.002     -0.000     -0.001
vibration  21
      +0.000     +0.004     -0.000
      -0.000     +0.316     +0.000
      -0.000     +0.016     +0.000
      +0.325     -0.544     -0.218
      -0.325     -0.544     +0.218
      +0.000     -0.000     -0.000
      +0.021     -0.030     -0.010
      -0.021     -0.030     +0.010
      +0.000     -0.000     -0.000
