[Molden Format]
[FR-COORD] # Coordinates in bohr
  H    -2.314238    -0.732121    -2.467405 
  C    -2.314238    -0.732121    -0.415673 
  C    +0.421644    -0.732121    +0.608315 
  H    -3.325511    +0.930467    +0.234507 
  H    -3.311004    -2.402116    +0.238868 
  O    +1.868711    +1.438545    -0.185769 
  H    +0.407327    -0.763440    +2.677677 
  H    +1.420432    -2.429039    -0.029129 
[FREQ] # Frequencies in cm^-1
  209.9265
  448.4483
  469.5999
 1013.2368
 1065.5125
 1265.2851
 1295.2657
 1479.3519
 1659.3948
 1729.7257
 1771.0634
 1822.7390
 1832.5452
 3562.1587
 3571.3442
 3673.6696
 3755.6408
 3758.0777
[FR-NORM-COORD] # Displacements in bohr
vibration  1
      -0.080     -0.493     +0.006
      -0.008     +0.013     +0.021
      +0.096     -0.157     -0.256
      +0.212     +0.276     -0.358
      -0.166     +0.272     +0.443
      -0.084     +0.138     +0.224
      +0.073     -0.047     -0.075
      -0.009     -0.059     -0.098
vibration  2
      +0.239     +0.170     -0.009
      +0.351     +0.262     -0.030
      +0.163     -0.311     +0.252
      +0.242     +0.165     -0.017
      -0.115     +0.156     -0.139
      -0.573     -0.049     -0.184
      +0.069     -0.060     +0.073
      +0.074     -0.069     +0.060
vibration  3
      -0.096     +0.113     +0.007
      -0.011     +0.018     +0.029
      +0.120     -0.198     -0.322
      +0.040     -0.022     +0.141
      +0.024     -0.039     -0.063
      -0.054     +0.089     +0.144
      +0.047     +0.608     -0.088
      -0.179     -0.391     +0.442
vibration  4
      -0.464     +0.122     -0.043
      +0.058     -0.095     -0.155
      +0.004     -0.007     -0.011
      +0.363     +0.045     +0.314
      -0.065     +0.107     +0.175
      +0.006     -0.010     -0.017
      -0.474     -0.041     -0.004
      +0.401     +0.161     +0.199
vibration  5
      -0.033     -0.109     +0.021
      +0.465     +0.199     +0.052
      -0.205     +0.243     -0.226
      -0.050     -0.082     +0.065
      +0.511     -0.072     +0.236
      -0.254     -0.326     +0.106
      -0.154     +0.019     -0.071
      -0.155     +0.020     -0.069
vibration  6
      +0.327     +0.100     +0.083
      +0.281     -0.253     +0.261
      -0.516     -0.048     -0.163
      +0.338     +0.082     +0.054
      -0.200     +0.033     -0.095
      +0.195     +0.227     -0.067
      -0.215     -0.041     -0.058
      -0.216     -0.038     -0.054
vibration  7
      -0.169     -0.119     -0.030
      +0.046     +0.193     -0.102
      -0.062     -0.428     +0.240
      -0.189     -0.087     +0.023
      +0.293     -0.046     +0.138
      +0.162     +0.401     -0.186
      -0.261     -0.269     +0.065
      -0.262     -0.267     +0.069
vibration  8
      +0.348     -0.078     +0.094
      -0.115     +0.189     +0.308
      +0.098     -0.161     -0.262
      -0.307     +0.010     -0.205
      +0.043     -0.071     -0.116
      +0.003     -0.005     -0.007
      -0.471     -0.031     -0.083
      +0.434     +0.091     +0.180
vibration  9
      -0.130     +0.097     +0.029
      +0.052     -0.137     +0.104
      +0.453     +0.339     -0.039
      -0.062     -0.014     -0.152
      -0.263     +0.058     -0.134
      -0.110     -0.088     +0.013
      -0.420     -0.251     -0.023
      -0.430     -0.235     +0.004
vibration  10
      +0.457     +0.093     -0.038
      -0.440     -0.055     -0.131
      +0.176     +0.129     -0.014
      +0.382     +0.216     +0.162
      +0.352     -0.189     +0.248
      -0.031     -0.020     +0.000
      -0.052     -0.190     -0.007
      -0.103     -0.106     +0.131
vibration  11
      -0.110     +0.072     +0.010
      +0.099     -0.007     +0.041
      -0.185     +0.161     -0.168
      -0.063     -0.006     -0.115
      -0.029     +0.022     -0.024
      +0.001     +0.008     -0.005
      +0.374     -0.538     -0.051
      +0.117     -0.115     +0.636
vibration  12
      -0.310     -0.356     +0.041
      -0.059     +0.098     +0.159
      -0.015     +0.024     +0.039
      +0.340     +0.306     -0.123
      +0.217     -0.356     -0.579
      +0.002     -0.003     -0.006
      +0.007     -0.016     +0.014
      -0.008     +0.017     -0.012
vibration  13
      +0.215     -0.603     -0.026
      -0.002     +0.162     -0.100
      +0.047     +0.099     -0.043
      -0.020     -0.216     +0.603
      -0.245     +0.130     -0.172
      -0.015     -0.017     +0.005
      -0.001     -0.103     -0.017
      -0.040     -0.038     +0.088
vibration  14
      +0.004     -0.001     +0.040
      -0.008     -0.007     +0.002
      -0.099     +0.166     -0.139
      +0.023     -0.032     -0.010
      +0.028     +0.052     -0.021
      +0.001     +0.001     -0.001
      -0.012     -0.009     +0.684
      +0.324     -0.562     -0.215
vibration  15
      -0.004     +0.000     +0.563
      -0.170     -0.003     -0.062
      +0.017     -0.015     +0.016
      +0.274     -0.457     -0.181
      +0.275     +0.467     -0.184
      +0.001     +0.001     -0.000
      +0.004     +0.000     -0.055
      -0.024     +0.046     +0.019
vibration  16
      -0.005     -0.001     +0.043
      +0.007     -0.011     -0.018
      -0.097     +0.159     +0.258
      -0.017     +0.036     +0.015
      +0.000     -0.001     -0.001
      +0.000     -0.001     -0.001
      +0.005     +0.006     -0.669
      +0.324     -0.546     -0.210
vibration  17
      -0.002     +0.004     +0.393
      +0.052     +0.274     -0.149
      -0.002     +0.003     -0.002
      +0.193     -0.317     -0.129
      -0.371     -0.627     +0.247
      -0.001     -0.001     -0.000
      +0.002     -0.001     +0.013
      +0.008     -0.011     -0.002
vibration  18
      +0.003     +0.002     -0.669
      -0.096     +0.157     +0.256
      -0.006     +0.009     +0.015
      +0.327     -0.544     -0.212
      -0.001     +0.002     +0.004
      +0.000     -0.000     -0.000
      -0.005     -0.001     -0.044
      +0.026     -0.033     -0.013
