[Molden Format]
[FR-COORD] # Coordinates in bohr
  H    -1.883755    -0.013173    -3.690614 
  C    -1.883755    -0.013173    -1.639146 
  C    +0.861624    -0.013173    -0.635603 
  H    -2.886928    +1.651428    -0.982319 
  H    -2.894315    -1.679225    -0.992380 
  O    +1.008350    +0.114626    +2.068026 
  H    +1.854675    -1.683184    -1.360300 
  H    +1.852279    +1.652763    -1.352841 
  H    +0.125154    -1.434109    +2.642442 
[FREQ] # Frequencies in cm^-1
  236.4646
  373.2442
  456.2397
  935.6601
 1067.0867
 1247.8257
 1273.6914
 1350.1852
 1513.1226
 1659.9860
 1723.1901
 1745.2617
 1814.6439
 1826.3448
 1840.6895
 3559.8580
 3568.0248
 3683.0028
 3749.4737
 3758.6105
 4224.5060
[FR-NORM-COORD] # Displacements in bohr
vibration  1
      -0.004     +0.551     +0.003
      +0.003     +0.003     +0.010
      +0.007     -0.217     -0.003
      -0.102     -0.237     +0.449
      +0.111     -0.237     -0.439
      +0.019     +0.190     -0.025
      -0.052     -0.121     +0.059
      +0.057     -0.121     -0.059
      -0.120     +0.145     +0.066
vibration  2
      -0.041     -0.091     +0.029
      +0.029     -0.080     +0.099
      +0.064     +0.153     -0.054
      -0.023     -0.031     +0.000
      +0.068     -0.032     +0.102
      +0.117     -0.172     -0.052
      +0.044     +0.077     -0.064
      -0.014     +0.081     +0.025
      -0.820     +0.430     -0.043
vibration  3
      -0.203     +0.008     +0.116
      +0.193     +0.017     +0.394
      +0.339     -0.040     -0.229
      +0.161     +0.011     +0.258
      +0.117     +0.021     +0.250
      -0.539     +0.046     -0.244
      +0.109     -0.023     -0.022
      +0.110     -0.009     -0.044
      +0.017     -0.108     -0.154
vibration  4
      +0.017     +0.168     +0.001
      +0.017     -0.121     +0.004
      -0.017     -0.262     +0.011
      +0.393     +0.161     +0.098
      -0.381     +0.162     -0.101
      +0.001     +0.075     -0.042
      +0.415     +0.227     -0.121
      -0.430     +0.225     +0.115
      -0.017     +0.078     +0.122
vibration  5
      +0.567     -0.012     +0.116
      +0.351     +0.020     +0.375
      -0.355     -0.001     +0.142
      -0.015     +0.019     -0.121
      +0.047     -0.037     -0.107
      -0.061     -0.012     -0.386
      -0.193     -0.000     -0.073
      -0.163     -0.001     -0.028
      +0.012     +0.014     -0.032
vibration  6
      -0.295     -0.089     -0.053
      +0.295     +0.150     -0.189
      -0.348     -0.181     +0.010
      +0.038     -0.075     +0.160
      +0.411     -0.029     +0.256
      +0.015     +0.016     -0.065
      -0.059     +0.067     -0.204
      -0.055     +0.064     +0.352
      +0.079     +0.104     +0.365
vibration  7
      -0.118     +0.088     -0.023
      +0.317     -0.157     -0.090
      -0.366     +0.225     -0.224
      +0.385     +0.040     +0.187
      +0.010     +0.058     +0.092
      +0.066     -0.049     +0.312
      -0.179     -0.068     +0.174
      -0.149     -0.073     -0.425
      -0.044     -0.080     -0.163
vibration  8
      +0.205     -0.065     +0.041
      +0.006     +0.123     +0.141
      +0.098     -0.192     -0.486
      -0.181     -0.008     -0.130
      +0.089     -0.058     -0.069
      -0.065     +0.072     +0.477
      -0.059     +0.047     -0.504
      -0.148     +0.034     -0.176
      -0.008     -0.002     +0.130
vibration  9
      +0.043     +0.119     +0.009
      -0.013     -0.326     +0.031
      +0.014     +0.236     -0.091
      +0.288     +0.063     +0.039
      -0.297     +0.047     -0.072
      -0.032     +0.020     +0.020
      -0.388     -0.016     -0.365
      +0.440     -0.025     +0.338
      +0.036     +0.045     +0.177
vibration  10
      -0.291     -0.005     -0.037
      +0.144     -0.013     -0.119
      +0.211     -0.078     +0.465
      -0.098     -0.107     +0.013
      -0.122     +0.105     +0.001
      -0.006     +0.092     -0.056
      -0.367     -0.019     -0.457
      -0.278     +0.029     -0.189
      -0.044     -0.055     -0.300
vibration  11
      -0.386     +0.080     +0.045
      +0.318     -0.028     +0.159
      +0.030     +0.156     -0.053
      -0.284     -0.103     -0.282
      -0.283     +0.125     -0.201
      -0.081     -0.159     -0.085
      +0.024     -0.008     +0.132
      -0.025     -0.015     -0.227
      +0.079     +0.110     +0.503
vibration  12
      +0.273     +0.033     -0.047
      -0.266     -0.015     -0.159
      +0.242     +0.163     +0.209
      +0.188     +0.066     +0.187
      +0.176     -0.056     +0.216
      -0.110     -0.162     -0.130
      -0.080     +0.019     -0.086
      -0.112     -0.044     -0.430
      +0.076     +0.117     +0.504
vibration  13
      +0.114     -0.055     -0.016
      +0.088     +0.017     -0.070
      -0.233     -0.013     +0.119
      -0.178     -0.206     +0.213
      -0.191     +0.196     +0.145
      +0.003     +0.016     +0.007
      +0.374     +0.377     -0.253
      +0.376     -0.378     -0.229
      -0.011     -0.012     -0.057
vibration  14
      +0.040     +0.706     -0.005
      -0.010     -0.192     -0.019
      -0.024     -0.064     +0.005
      -0.128     +0.035     -0.412
      +0.127     +0.064     +0.489
      +0.010     +0.024     +0.014
      +0.045     +0.021     -0.028
      +0.005     -0.024     +0.019
      -0.012     -0.016     -0.071
vibration  15
      -0.292     +0.015     +0.037
      -0.081     -0.004     +0.141
      -0.100     -0.011     +0.183
      +0.299     +0.341     -0.340
      +0.306     -0.337     -0.319
      -0.002     +0.010     -0.021
      +0.160     +0.215     -0.192
      +0.161     -0.216     -0.172
      -0.004     -0.008     -0.046
vibration  16
      -0.004     -0.000     +0.057
      -0.002     -0.003     -0.010
      -0.193     +0.065     +0.135
      +0.019     -0.023     -0.008
      +0.025     +0.034     -0.013
      +0.001     +0.002     +0.002
      +0.382     -0.656     -0.282
      +0.248     +0.428     -0.184
      +0.001     -0.002     -0.008
vibration  17
      +0.004     +0.001     -0.554
      +0.171     +0.009     +0.059
      -0.024     +0.005     +0.008
      -0.265     +0.449     +0.177
      -0.288     -0.482     +0.188
      -0.000     +0.000     -0.001
      +0.026     -0.049     -0.021
      +0.017     +0.033     -0.015
      +0.000     -0.001     -0.000
vibration  18
      -0.001     +0.002     +0.014
      +0.002     +0.029     -0.005
      -0.042     -0.310     +0.032
      +0.024     -0.044     -0.020
      -0.025     -0.050     +0.022
      +0.004     +0.006     -0.001
      -0.243     +0.412     +0.175
      +0.379     +0.643     -0.276
      -0.011     -0.015     -0.004
vibration  19
      +0.002     -0.004     -0.497
      -0.062     -0.247     +0.184
      -0.004     -0.022     +0.003
      -0.149     +0.246     +0.101
      +0.364     +0.606     -0.235
      +0.000     +0.001     -0.001
      -0.018     +0.028     +0.010
      +0.034     +0.051     -0.020
      -0.002     -0.002     -0.001
vibration  20
      -0.003     -0.003     +0.604
      +0.088     -0.195     -0.233
      +0.002     -0.013     -0.001
      -0.350     +0.589     +0.231
      +0.052     +0.082     -0.036
      +0.001     +0.000     +0.001
      -0.022     +0.029     +0.011
      +0.011     +0.019     -0.006
      -0.000     -0.001     -0.000
vibration  21
      +0.000     -0.000     +0.001
      -0.001     -0.000     +0.001
      +0.004     +0.010     +0.014
      +0.001     -0.001     -0.000
      -0.001     -0.000     -0.000
      +0.112     +0.197     -0.091
      +0.003     -0.008     -0.000
      -0.006     -0.011     +0.003
      -0.455     -0.799     +0.309
