[Molden Format]
[FR-COORD] # Coordinates in bohr
  H    -1.886432    +0.017500    -3.747131 
  C    -1.886432    +0.017500    -1.695663 
  C    +0.858947    +0.017500    -0.692120 
  H    -2.889605    +1.682101    -1.038836 
  H    -2.896991    -1.648552    -1.048897 
  O    +1.005673    +0.145299    +2.011509 
  H    +1.851998    -1.652511    -1.416817 
  H    +1.849602    +1.683436    -1.409358 
  H    +0.122477    -1.403436    +2.585925 
[FREQ] # Frequencies in cm^-1
  229.8046
  284.2472
  448.9837
  921.4276
 1065.1650
 1105.8386
 1268.7452
 1340.8354
 1448.7486
 1540.9499
 1673.4685
 1734.9158
 1814.2522
 1825.7226
 1840.4059
 3077.5062
 3559.8005
 3568.0249
 3683.1775
 3749.4751
 3758.6107
[FR-NORM-COORD] # Displacements in bohr
vibration  1
      +0.013     -0.514     -0.010
      -0.007     +0.031     -0.034
      -0.024     +0.154     +0.020
      +0.112     +0.246     -0.439
      -0.129     +0.247     +0.406
      -0.078     -0.104     +0.041
      +0.029     +0.081     -0.027
      -0.038     +0.080     +0.044
      +0.307     -0.257     -0.064
vibration  2
      +0.036     +0.225     -0.032
      -0.022     +0.107     -0.109
      -0.066     -0.224     +0.049
      +0.005     -0.015     +0.103
      -0.041     -0.014     -0.205
      -0.179     +0.238     +0.041
      -0.073     -0.128     +0.092
      +0.050     -0.131     -0.044
      +0.737     -0.342     +0.093
vibration  3
      +0.200     -0.010     -0.119
      -0.191     -0.011     -0.404
      -0.337     +0.048     +0.214
      -0.157     -0.007     -0.261
      -0.116     -0.017     -0.248
      +0.519     -0.077     +0.229
      -0.100     +0.034     +0.009
      -0.115     +0.020     +0.051
      +0.029     +0.111     +0.220
vibration  4
      -0.017     +0.151     -0.001
      +0.033     -0.096     -0.006
      -0.005     -0.248     -0.028
      +0.373     +0.150     +0.105
      -0.328     +0.153     -0.070
      -0.042     +0.027     -0.077
      +0.412     +0.239     -0.160
      -0.404     +0.238     +0.149
      +0.025     +0.105     +0.285
vibration  5
      -0.582     -0.010     -0.116
      -0.324     +0.009     -0.378
      +0.342     +0.009     -0.164
      -0.018     -0.036     +0.121
      +0.020     +0.021     +0.135
      +0.040     -0.011     +0.353
      +0.167     +0.002     +0.038
      +0.191     +0.003     +0.063
      +0.003     -0.000     +0.158
vibration  6
      +0.050     +0.117     -0.002
      -0.189     -0.166     -0.000
      +0.129     +0.022     +0.071
      +0.157     +0.084     -0.004
      -0.364     +0.079     -0.151
      +0.125     +0.125     +0.220
      +0.121     -0.036     +0.234
      -0.098     -0.036     -0.260
      -0.113     -0.150     -0.664
vibration  7
      +0.233     -0.044     +0.044
      -0.409     +0.082     +0.165
      +0.482     -0.120     +0.180
      -0.371     -0.007     -0.239
      -0.174     -0.043     -0.189
      -0.079     +0.022     -0.252
      +0.180     +0.034     -0.085
      +0.166     +0.040     +0.236
      +0.020     +0.045     +0.034
vibration  8
      -0.260     +0.021     -0.052
      +0.019     -0.043     -0.179
      -0.139     +0.053     +0.525
      +0.119     -0.019     +0.140
      +0.024     +0.041     +0.118
      +0.075     -0.029     -0.482
      +0.084     -0.016     +0.397
      +0.113     -0.003     +0.328
      +0.025     +0.038     -0.142
vibration  9
      -0.097     -0.145     -0.024
      +0.063     +0.304     -0.081
      -0.097     -0.476     +0.091
      -0.251     -0.081     -0.002
      +0.340     -0.053     +0.110
      +0.086     +0.201     +0.117
      +0.167     +0.072     -0.196
      -0.319     +0.077     +0.160
      -0.044     -0.053     -0.388
vibration  10
      -0.029     +0.055     -0.009
      +0.023     -0.215     -0.033
      -0.039     -0.022     +0.027
      +0.205     +0.022     +0.062
      -0.169     +0.035     -0.020
      +0.038     +0.176     +0.091
      -0.386     +0.013     -0.547
      +0.301     +0.013     +0.489
      -0.013     -0.017     -0.223
vibration  11
      +0.328     -0.023     +0.027
      -0.175     +0.017     +0.081
      -0.274     -0.049     -0.440
      +0.152     +0.117     +0.044
      +0.171     -0.125     +0.029
      +0.071     +0.040     +0.123
      +0.325     +0.027     +0.330
      +0.307     -0.012     +0.403
      -0.012     -0.022     -0.060
vibration  12
      -0.442     +0.036     +0.067
      +0.401     -0.010     +0.230
      -0.180     -0.019     -0.218
      -0.322     -0.111     -0.330
      -0.310     +0.119     -0.288
      +0.031     +0.016     +0.046
      +0.100     -0.011     +0.165
      +0.094     +0.017     +0.192
      -0.002     -0.010     -0.023
vibration  13
      -0.115     +0.022     +0.016
      -0.084     -0.007     +0.070
      +0.225     +0.002     -0.123
      +0.178     +0.200     -0.191
      +0.182     -0.195     -0.164
      +0.004     -0.003     +0.001
      -0.377     -0.381     +0.252
      -0.376     +0.383     +0.253
      +0.003     +0.002     +0.010
vibration  14
      -0.029     -0.712     +0.003
      +0.019     +0.194     +0.012
      +0.006     +0.048     -0.006
      +0.111     -0.054     +0.431
      -0.143     -0.047     -0.476
      -0.001     -0.008     -0.004
      -0.033     -0.011     +0.018
      +0.009     +0.015     +0.001
      +0.002     +0.002     +0.013
vibration  15
      +0.293     +0.002     -0.038
      +0.083     -0.000     -0.142
      +0.090     -0.000     -0.181
      -0.305     -0.342     +0.331
      -0.304     +0.341     +0.333
      +0.008     +0.001     +0.027
      -0.154     -0.210     +0.185
      -0.155     +0.212     +0.184
      -0.002     -0.002     +0.010
vibration  16
      +0.001     +0.000     +0.001
      +0.001     +0.001     -0.001
      -0.004     +0.001     -0.027
      -0.000     -0.001     -0.000
      +0.001     +0.000     +0.001
      -0.155     -0.274     +0.129
      +0.006     -0.007     -0.005
      -0.005     -0.007     -0.002
      +0.442     +0.776     -0.292
vibration  17
      -0.004     -0.000     +0.057
      -0.002     -0.003     -0.010
      -0.193     +0.065     +0.135
      +0.019     -0.022     -0.008
      +0.025     +0.034     -0.013
      +0.001     +0.002     +0.001
      +0.382     -0.655     -0.282
      +0.248     +0.428     -0.185
      -0.000     -0.004     -0.005
vibration  18
      +0.004     +0.001     -0.554
      +0.171     +0.009     +0.059
      -0.024     +0.005     +0.007
      -0.265     +0.449     +0.177
      -0.288     -0.482     +0.188
      -0.001     -0.000     -0.001
      +0.026     -0.049     -0.021
      +0.017     +0.033     -0.015
      +0.001     +0.000     -0.000
vibration  19
      -0.001     +0.002     +0.014
      +0.003     +0.029     -0.005
      -0.042     -0.310     +0.031
      +0.024     -0.044     -0.020
      -0.025     -0.050     +0.022
      -0.000     -0.001     +0.002
      -0.243     +0.412     +0.175
      +0.379     +0.643     -0.276
      +0.004     +0.009     -0.010
vibration  20
      +0.002     -0.004     -0.497
      -0.062     -0.247     +0.184
      -0.004     -0.022     +0.003
      -0.149     +0.246     +0.101
      +0.364     +0.606     -0.235
      -0.001     -0.000     -0.001
      -0.018     +0.029     +0.010
      +0.034     +0.051     -0.020
      -0.000     +0.001     -0.002
vibration  21
      -0.003     -0.003     +0.604
      +0.088     -0.195     -0.233
      +0.002     -0.013     -0.001
      -0.350     +0.589     +0.231
      +0.052     +0.082     -0.036
      +0.001     +0.000     +0.001
      -0.022     +0.029     +0.011
      +0.011     +0.019     -0.006
      +0.000     +0.000     -0.000
