[Molden Format]
[FR-COORD] # Coordinates in bohr
  H    -1.850640    +0.000001    -3.694127 
  C    -1.850640    +0.000001    -1.642338 
  C    +0.883745    +0.000001    -0.636913 
  H    -2.850966    +1.665028    -0.982493 
  H    -2.850966    -1.665027    -0.982491 
  O    +0.800013    -0.000002    +2.074553 
  H    +1.882937    -1.669549    -1.354518 
  H    +1.882934    +1.669557    -1.354510 
  H    +2.602574    -0.000002    +2.582134 
[FREQ] # Frequencies in cm^-1
  224.6903
  355.7822
  438.5192
  951.9724
 1076.6349
 1227.4650
 1345.3942
 1351.0157
 1510.9932
 1574.7216
 1709.0532
 1790.3277
 1819.8967
 1826.4293
 1850.9279
 3539.6163
 3574.1109
 3650.7755
 3758.7518
 3761.1120
 4227.5130
[FR-NORM-COORD] # Displacements in bohr
vibration  1
      +0.000     +0.549     -0.000
      -0.000     -0.001     -0.000
      -0.000     -0.228     -0.000
      -0.100     -0.237     +0.447
      +0.100     -0.237     -0.447
      +0.000     +0.256     +0.000
      -0.056     -0.127     +0.065
      +0.056     -0.127     -0.065
      +0.000     -0.051     -0.000
vibration  2
      +0.000     -0.082     -0.000
      -0.000     -0.099     -0.000
      -0.000     +0.139     +0.000
      -0.040     -0.036     -0.043
      +0.040     -0.036     +0.043
      +0.000     +0.217     +0.000
      +0.013     +0.050     +0.005
      -0.013     +0.050     -0.005
      +0.000     -0.950     -0.000
vibration  3
      -0.203     -0.000     +0.122
      +0.174     -0.000     +0.413
      +0.342     +0.000     -0.221
      +0.134     -0.005     +0.258
      +0.134     +0.005     +0.258
      -0.473     +0.000     -0.338
      +0.107     -0.007     -0.036
      +0.107     +0.007     -0.036
      -0.177     -0.000     +0.118
vibration  4
      -0.000     +0.173     -0.000
      +0.000     -0.139     -0.000
      +0.000     -0.244     -0.000
      +0.409     +0.166     +0.104
      -0.409     +0.166     -0.104
      -0.000     +0.106     +0.000
      +0.428     +0.215     -0.064
      -0.428     +0.215     +0.064
      +0.000     -0.035     +0.000
vibration  5
      +0.573     +0.000     +0.117
      +0.338     -0.000     +0.379
      -0.343     -0.000     +0.154
      +0.007     +0.029     -0.120
      +0.007     -0.029     -0.120
      -0.050     +0.000     -0.368
      -0.181     +0.000     -0.058
      -0.181     -0.000     -0.058
      -0.008     +0.000     -0.137
vibration  6
      -0.283     -0.000     -0.044
      +0.435     +0.000     -0.170
      -0.463     +0.000     -0.124
      +0.296     -0.024     +0.248
      +0.296     +0.024     +0.248
      -0.027     -0.000     +0.204
      -0.105     +0.002     +0.028
      -0.105     -0.002     +0.028
      +0.100     +0.000     -0.307
vibration  7
      +0.000     -0.141     +0.000
      +0.000     +0.249     +0.000
      +0.000     -0.449     -0.000
      -0.278     -0.071     -0.062
      +0.278     -0.071     +0.062
      -0.000     +0.180     +0.000
      +0.092     +0.125     -0.481
      -0.092     +0.125     +0.481
      -0.000     +0.007     +0.000
vibration  8
      +0.183     +0.000     +0.035
      +0.078     -0.000     +0.118
      +0.025     +0.000     -0.511
      -0.002     +0.023     -0.070
      -0.002     -0.023     -0.070
      -0.041     -0.000     +0.489
      -0.168     +0.000     -0.385
      -0.168     -0.000     -0.385
      -0.037     -0.000     +0.279
vibration  9
      +0.000     -0.109     +0.000
      -0.000     +0.317     +0.000
      +0.000     -0.169     -0.000
      -0.287     -0.052     -0.056
      +0.287     -0.052     +0.056
      +0.000     -0.074     +0.000
      +0.400     +0.008     +0.422
      -0.400     +0.008     -0.422
      -0.000     -0.016     +0.000
vibration  10
      -0.206     -0.000     -0.063
      +0.083     +0.000     -0.214
      -0.033     -0.000     +0.411
      +0.063     -0.053     +0.124
      +0.063     +0.053     +0.124
      +0.159     +0.000     -0.255
      -0.284     -0.019     -0.208
      -0.284     +0.019     -0.208
      -0.156     -0.000     +0.569
vibration  11
      +0.498     +0.000     -0.035
      -0.378     -0.000     -0.126
      -0.126     -0.000     -0.123
      +0.351     +0.165     +0.242
      +0.351     -0.165     +0.242
      +0.093     +0.000     -0.028
      +0.112     +0.017     +0.129
      +0.112     -0.017     +0.129
      -0.058     -0.000     +0.267
vibration  12
      +0.227     +0.000     -0.049
      -0.215     -0.000     -0.164
      +0.356     -0.000     +0.319
      +0.061     -0.022     +0.207
      +0.061     +0.022     +0.207
      -0.180     -0.000     +0.064
      -0.115     +0.044     -0.324
      -0.115     -0.044     -0.324
      +0.111     +0.000     -0.510
vibration  13
      -0.000     -0.716     +0.000
      -0.000     +0.195     +0.000
      +0.000     +0.046     +0.000
      +0.128     -0.051     +0.452
      -0.128     -0.051     -0.452
      -0.000     -0.005     +0.000
      -0.022     +0.002     +0.005
      +0.022     +0.002     -0.005
      +0.000     -0.001     -0.000
vibration  14
      -0.234     +0.000     +0.026
      -0.140     -0.000     +0.115
      +0.204     -0.000     +0.043
      +0.317     +0.345     -0.303
      +0.317     -0.345     -0.303
      -0.034     +0.000     +0.000
      -0.257     -0.209     +0.074
      -0.257     +0.209     +0.074
      +0.026     +0.000     -0.111
vibration  15
      +0.196     -0.000     -0.024
      +0.017     +0.000     -0.085
      +0.208     +0.000     -0.208
      -0.163     -0.186     +0.191
      -0.163     +0.186     +0.191
      +0.001     -0.000     +0.025
      -0.331     -0.378     +0.287
      -0.331     +0.378     +0.287
      +0.012     +0.000     -0.018
vibration  16
      -0.004     +0.000     +0.032
      +0.005     -0.000     -0.007
      -0.198     +0.000     +0.135
      +0.010     -0.008     -0.003
      +0.010     +0.008     -0.003
      +0.004     -0.000     +0.002
      +0.323     -0.557     -0.236
      +0.323     +0.557     -0.236
      -0.013     +0.000     -0.004
vibration  17
      +0.003     -0.000     -0.577
      +0.169     +0.000     +0.066
      -0.017     -0.000     +0.001
      -0.271     +0.458     +0.183
      -0.271     -0.458     +0.183
      -0.000     +0.000     -0.001
      +0.008     -0.018     -0.008
      +0.008     +0.018     -0.008
      -0.001     +0.000     +0.000
vibration  18
      +0.000     +0.002     +0.000
      -0.000     +0.020     +0.000
      -0.000     -0.317     -0.000
      +0.014     -0.031     -0.015
      -0.014     -0.031     +0.015
      +0.000     +0.000     +0.000
      -0.323     +0.540     +0.229
      +0.323     +0.540     -0.229
      -0.000     +0.004     -0.000
vibration  19
      -0.003     +0.000     +0.767
      +0.111     +0.000     -0.296
      +0.003     +0.000     -0.002
      -0.190     +0.323     +0.124
      -0.190     -0.323     +0.124
      +0.000     +0.000     +0.001
      -0.008     +0.008     +0.004
      -0.008     -0.008     +0.004
      +0.002     +0.000     +0.002
vibration  20
      -0.000     -0.004     +0.000
      +0.000     -0.316     -0.000
      +0.000     -0.016     -0.000
      -0.325     +0.544     +0.218
      +0.325     +0.544     -0.218
      -0.000     +0.000     +0.000
      -0.021     +0.030     +0.010
      +0.021     +0.030     -0.010
      +0.000     +0.000     +0.000
vibration  21
      +0.001     -0.000     +0.002
      -0.001     -0.000     -0.000
      +0.009     +0.000     -0.016
      -0.001     +0.001     -0.000
      -0.001     -0.001     -0.000
      +0.230     +0.000     +0.083
      -0.005     +0.006     +0.000
      -0.005     -0.006     +0.000
      -0.930     -0.000     -0.274
