[Molden Format]
[FR-COORD] # Coordinates in bohr
  H    +0.000000    +0.000000    +0.000000 
