[Molden Format]
[FR-COORD] # Coordinates in bohr
  H    -0.672959    +0.000000    +0.000000 
  H    +0.672959    +0.000000    +0.000000 
[FREQ] # Frequencies in cm^-1
 3877.3215
[FR-NORM-COORD] # Displacements in bohr
vibration  1
      -0.707     +0.000     +0.000
      +0.707     +0.000     +0.000
