[Molden Format]
[FR-COORD] # Coordinates in bohr
  H    -1.884190    +0.030234    -3.759178 
  C    -1.884190    +0.030234    -1.707483 
  C    +0.863619    +0.030234    -0.711110 
  H    -2.882364    +1.698137    -1.051297 
  H    -2.897681    -1.632281    -1.059381 
  O    +1.034596    +0.248875    +1.991325 
  H    +1.848461    -1.661260    -1.390587 
  H    +1.863409    +1.672408    -1.472898 
  H    +0.242298    -1.472393    +2.679450 
  H    -0.557948    -3.304666    +3.247900 
[FREQ] # Frequencies in cm^-1
 -2539.0363
  172.6952
  248.0667
  393.8305
  480.2775
  893.1418
  935.7606
 1064.2220
 1263.0221
 1271.1741
 1338.1292
 1510.5582
 1643.9224
 1685.9131
 1733.6860
 1805.6835
 1825.1415
 1836.7150
 1964.5575
 3562.4374
 3570.4683
 3679.5120
 3753.7854
 3758.4670
[FR-NORM-COORD] # Displacements in bohr
vibration  1
      -0.005     -0.003     +0.000
      +0.002     -0.002     +0.000
      +0.010     +0.009     +0.031
      +0.000     -0.001     -0.000
      -0.005     -0.000     -0.001
      -0.017     -0.037     +0.001
      -0.008     -0.004     -0.010
      -0.007     -0.007     -0.017
      +0.289     +0.679     -0.261
      -0.235     -0.544     +0.181
vibration  2
      +0.027     -0.239     -0.023
      +0.005     +0.158     -0.078
      -0.037     -0.112     +0.040
      +0.124     +0.214     -0.266
      -0.137     +0.216     +0.198
      -0.199     +0.060     +0.045
      -0.061     -0.081     +0.064
      +0.056     -0.085     -0.015
      +0.244     -0.117     +0.016
      +0.648     -0.308     -0.023
vibration  3
      +0.013     +0.512     -0.017
      +0.007     +0.100     -0.058
      -0.017     -0.278     +0.015
      -0.057     -0.157     +0.369
      +0.057     -0.158     -0.410
      -0.107     +0.194     -0.017
      -0.080     -0.157     +0.088
      +0.083     -0.163     -0.057
      +0.115     +0.019     +0.076
      +0.334     -0.054     +0.167
vibration  4
      +0.103     -0.022     -0.083
      -0.079     +0.039     -0.281
      -0.172     +0.150     +0.056
      -0.082     +0.013     -0.175
      -0.043     +0.007     -0.120
      +0.204     -0.246     +0.074
      +0.001     +0.111     -0.082
      -0.099     +0.110     +0.091
      +0.062     -0.040     +0.094
      +0.113     +0.152     +0.761
vibration  5
      -0.179     -0.006     +0.090
      +0.183     +0.039     +0.305
      +0.300     +0.048     -0.246
      +0.140     +0.019     +0.200
      +0.115     +0.028     +0.227
      -0.478     -0.115     -0.250
      +0.137     +0.050     -0.089
      +0.063     +0.066     +0.007
      -0.093     -0.055     -0.080
      +0.052     +0.056     +0.434
vibration  6
      +0.006     -0.058     +0.002
      -0.004     +0.027     +0.007
      -0.002     +0.090     -0.001
      -0.127     -0.051     -0.039
      +0.116     -0.055     +0.027
      +0.119     -0.088     -0.000
      -0.123     -0.051     +0.007
      +0.117     -0.050     -0.008
      -0.794     +0.347     -0.007
      +0.354     -0.135     -0.001
vibration  7
      +0.047     +0.160     +0.004
      +0.010     -0.116     +0.013
      -0.025     -0.264     +0.039
      +0.363     +0.154     +0.079
      -0.374     +0.152     -0.113
      +0.038     +0.067     -0.045
      +0.389     +0.207     -0.127
      -0.414     +0.219     +0.115
      -0.214     +0.172     +0.095
      +0.102     -0.020     -0.056
vibration  8
      +0.558     -0.018     +0.114
      +0.350     +0.029     +0.369
      -0.352     +0.008     +0.162
      -0.030     +0.013     -0.122
      +0.062     -0.042     -0.103
      -0.070     -0.032     -0.395
      -0.197     -0.003     -0.066
      -0.151     -0.003     -0.017
      +0.030     +0.006     -0.050
      +0.012     +0.047     -0.014
vibration  9
      -0.318     -0.036     -0.058
      +0.404     +0.053     -0.214
      -0.486     -0.078     -0.071
      +0.221     -0.046     +0.232
      +0.359     +0.005     +0.269
      +0.060     +0.012     +0.085
      -0.129     +0.026     -0.101
      -0.128     +0.030     +0.131
      +0.042     +0.076     +0.216
      -0.006     -0.015     -0.046
vibration  10
      -0.063     -0.116     -0.012
      -0.159     +0.201     -0.032
      +0.158     -0.277     +0.269
      -0.313     -0.070     -0.078
      +0.173     -0.059     +0.045
      -0.042     +0.031     -0.322
      +0.136     +0.073     -0.197
      +0.117     +0.099     +0.547
      +0.099     +0.144     +0.247
      +0.020     +0.067     -0.089
vibration  11
      +0.211     -0.074     +0.042
      +0.002     +0.139     +0.144
      +0.096     -0.227     -0.457
      -0.206     -0.014     -0.137
      +0.105     -0.064     -0.067
      -0.055     +0.109     +0.427
      -0.062     +0.036     -0.526
      -0.139     +0.039     -0.122
      +0.008     +0.017     +0.190
      -0.036     -0.072     -0.004
vibration  12
      +0.044     +0.118     +0.011
      -0.014     -0.323     +0.035
      +0.009     +0.234     -0.085
      +0.284     +0.061     +0.038
      -0.298     +0.047     -0.074
      -0.031     +0.008     +0.009
      -0.385     -0.027     -0.347
      +0.440     -0.017     +0.345
      +0.053     +0.078     +0.199
      +0.003     +0.016     -0.034
vibration  13
      -0.236     -0.013     -0.036
      +0.106     -0.017     -0.116
      +0.165     -0.111     +0.402
      -0.056     -0.084     +0.034
      -0.087     +0.081     +0.011
      +0.002     +0.122     +0.010
      -0.335     -0.017     -0.474
      -0.206     +0.017     -0.085
      -0.062     -0.121     -0.509
      +0.041     +0.091     +0.033
vibration  14
      -0.226     +0.050     -0.004
      +0.133     -0.020     -0.009
      +0.208     +0.179     +0.212
      -0.134     -0.074     -0.086
      -0.145     +0.091     -0.043
      -0.119     -0.216     -0.136
      -0.135     -0.014     -0.054
      -0.197     -0.024     -0.455
      +0.107     +0.213     +0.574
      +0.027     +0.066     -0.092
vibration  15
      +0.448     -0.029     -0.064
      -0.404     +0.006     -0.220
      +0.170     +0.040     +0.195
      +0.328     +0.118     +0.320
      +0.312     -0.124     +0.284
      -0.043     -0.050     -0.042
      -0.075     +0.019     -0.147
      -0.073     -0.035     -0.208
      +0.022     +0.051     +0.090
      +0.016     +0.039     -0.024
vibration  16
      +0.072     -0.017     -0.008
      +0.076     +0.006     -0.043
      -0.244     -0.002     +0.131
      -0.139     -0.150     +0.134
      -0.140     +0.147     +0.114
      -0.004     +0.003     +0.005
      +0.405     +0.397     -0.281
      +0.397     -0.416     -0.251
      -0.005     -0.003     -0.030
      +0.005     +0.014     -0.002
vibration  17
      +0.022     +0.711     -0.002
      -0.021     -0.195     -0.008
      -0.006     -0.052     +0.012
      -0.105     +0.062     -0.439
      +0.149     +0.039     +0.466
      +0.006     +0.020     +0.001
      +0.030     +0.010     -0.023
      -0.009     -0.015     +0.004
      -0.011     -0.020     -0.031
      -0.008     -0.017     +0.008
vibration  18
      -0.309     -0.012     +0.041
      -0.088     +0.004     +0.156
      -0.067     +0.002     +0.143
      +0.326     +0.364     -0.351
      +0.319     -0.366     -0.365
      -0.013     -0.016     -0.009
      +0.109     +0.150     -0.144
      +0.107     -0.160     -0.132
      +0.012     +0.021     -0.033
      +0.021     +0.049     -0.014
vibration  19
      +0.037     +0.015     +0.004
      +0.006     +0.003     +0.010
      -0.037     -0.018     -0.135
      -0.022     -0.012     -0.001
      -0.002     +0.011     +0.024
      -0.113     -0.262     +0.197
      +0.037     -0.020     +0.053
      +0.009     +0.014     +0.040
      +0.224     +0.449     -0.279
      +0.277     +0.638     -0.193
vibration  20
      -0.003     -0.000     +0.051
      +0.000     -0.002     -0.010
      -0.195     +0.045     +0.136
      +0.016     -0.019     -0.007
      +0.019     +0.024     -0.010
      +0.001     +0.002     +0.001
      +0.358     -0.630     -0.249
      +0.280     +0.472     -0.220
      -0.000     -0.005     -0.005
      +0.001     +0.001     -0.001
vibration  21
      +0.004     +0.001     -0.566
      +0.170     +0.004     +0.063
      -0.022     +0.002     +0.006
      -0.267     +0.455     +0.179
      -0.281     -0.469     +0.184
      -0.000     +0.000     -0.001
      +0.019     -0.038     -0.015
      +0.016     +0.031     -0.015
      -0.000     -0.001     +0.000
      -0.000     +0.000     -0.000
vibration  22
      -0.000     +0.002     +0.009
      +0.001     +0.027     -0.003
      -0.027     -0.314     +0.027
      +0.022     -0.042     -0.019
      -0.022     -0.045     +0.020
      +0.000     +0.000     +0.002
      -0.271     +0.470     +0.186
      +0.360     +0.598     -0.278
      +0.000     +0.006     -0.009
      +0.000     +0.001     -0.000
vibration  23
      +0.002     -0.003     -0.605
      -0.084     -0.199     +0.229
      -0.004     -0.016     +0.003
      -0.064     +0.103     +0.045
      +0.351     +0.583     -0.227
      -0.001     -0.000     -0.001
      -0.011     +0.019     +0.006
      +0.028     +0.039     -0.017
      +0.000     +0.002     -0.002
      +0.000     -0.000     +0.000
vibration  24
      -0.002     -0.004     +0.484
      +0.071     -0.244     -0.187
      +0.001     -0.017     -0.000
      -0.371     +0.627     +0.247
      +0.131     +0.214     -0.088
      +0.000     +0.000     +0.001
      -0.025     +0.035     +0.012
      +0.017     +0.026     -0.010
      +0.000     +0.001     -0.001
      +0.000     -0.000     +0.000
