[Molden Format]
[FR-COORD] # Coordinates in bohr
  H    -1.877716    +0.128213    -3.880749 
  C    -1.877716    +0.128213    -1.829054 
  C    +0.870093    +0.128213    -0.832681 
  H    -2.875890    +1.796115    -1.172868 
  H    -2.891206    -1.534302    -1.180952 
  O    +1.041070    +0.346854    +1.869754 
  H    +1.854935    -1.563281    -1.512159 
  H    +1.869883    +1.770387    -1.594469 
  H    +0.248772    -1.374414    +2.557879 
  H    -0.551474    -3.206687    +3.126329 
[FREQ] # Frequencies in cm^-1
 -1798.6687
  141.8431
  235.4136
  313.1342
  459.5181
  642.1201
  920.5586
 1057.2763
 1107.5006
 1257.3688
 1300.4512
 1414.8592
 1480.3947
 1538.5959
 1673.6349
 1733.7204
 1805.6250
 1824.9760
 1837.4895
 3562.3956
 3570.4674
 3679.4015
 3753.7783
 3758.4657
[FR-NORM-COORD] # Displacements in bohr
vibration  1
      -0.004     -0.003     +0.001
      +0.002     -0.003     +0.001
      +0.010     +0.009     +0.036
      +0.000     -0.001     -0.001
      -0.005     +0.000     -0.001
      -0.023     -0.048     +0.003
      -0.010     -0.003     -0.010
      -0.007     -0.007     -0.017
      +0.288     +0.676     -0.261
      -0.236     -0.546     +0.182
vibration  2
      -0.039     +0.150     +0.037
      -0.006     -0.222     +0.126
      +0.056     +0.192     -0.049
      -0.127     -0.214     +0.229
      +0.147     -0.216     -0.121
      +0.256     -0.097     -0.046
      +0.095     +0.131     -0.092
      -0.087     +0.137     +0.026
      -0.202     +0.082     -0.056
      -0.634     +0.273     -0.058
vibration  3
      -0.019     -0.540     +0.029
      -0.005     -0.101     +0.099
      +0.025     +0.207     +0.009
      +0.083     +0.180     -0.376
      -0.077     +0.181     +0.449
      +0.086     -0.081     +0.033
      +0.059     +0.109     -0.045
      -0.057     +0.112     +0.031
      -0.057     -0.031     -0.088
      -0.227     -0.029     -0.331
vibration  4
      -0.047     +0.113     +0.056
      +0.021     -0.044     +0.190
      +0.069     -0.252     +0.041
      +0.034     -0.047     +0.184
      +0.012     -0.045     -0.019
      -0.065     +0.333     +0.009
      -0.059     -0.166     +0.130
      +0.094     -0.170     -0.097
      -0.017     +0.123     -0.001
      -0.042     -0.117     -0.770
vibration  5
      -0.196     -0.004     +0.111
      +0.196     +0.024     +0.375
      +0.337     +0.013     -0.245
      +0.153     +0.014     +0.236
      +0.122     +0.024     +0.253
      -0.486     -0.028     -0.252
      +0.126     +0.014     -0.056
      +0.091     +0.029     -0.025
      -0.188     -0.046     -0.170
      +0.048     -0.020     +0.195
vibration  6
      +0.024     -0.018     -0.005
      -0.020     -0.010     -0.018
      -0.023     +0.029     +0.018
      -0.038     -0.012     -0.032
      +0.006     -0.015     -0.015
      +0.205     -0.096     +0.013
      -0.020     +0.011     -0.027
      -0.006     +0.013     +0.017
      -0.807     +0.374     +0.024
      +0.360     -0.135     -0.018
vibration  7
      +0.013     +0.155     +0.000
      +0.019     -0.099     +0.000
      -0.012     -0.268     +0.005
      +0.366     +0.152     +0.092
      -0.349     +0.154     -0.091
      -0.028     +0.032     -0.066
      +0.405     +0.224     -0.159
      -0.409     +0.237     +0.144
      +0.030     +0.131     +0.248
      +0.013     +0.022     -0.064
vibration  8
      -0.560     -0.009     -0.111
      -0.311     +0.006     -0.363
      +0.329     +0.006     -0.205
      -0.010     -0.032     +0.118
      +0.020     +0.022     +0.134
      +0.053     +0.023     +0.348
      +0.158     +0.003     +0.018
      +0.179     +0.006     +0.045
      +0.003     +0.013     +0.257
      -0.044     -0.100     +0.003
vibration  9
      -0.018     +0.108     -0.014
      -0.181     -0.150     -0.040
      +0.137     +0.023     +0.056
      +0.155     +0.073     +0.018
      -0.320     +0.076     -0.117
      +0.113     +0.139     +0.221
      +0.131     -0.026     +0.229
      -0.073     -0.039     -0.226
      -0.132     -0.224     -0.685
      +0.009     +0.006     +0.100
vibration  10
      -0.102     +0.045     -0.018
      +0.391     -0.079     -0.076
      -0.432     +0.110     -0.315
      +0.328     +0.018     +0.178
      +0.137     +0.032     +0.130
      +0.092     +0.078     +0.291
      -0.185     -0.025     -0.003
      -0.193     -0.040     -0.315
      -0.068     -0.121     +0.093
      -0.082     -0.194     +0.060
vibration  11
      +0.377     -0.008     +0.073
      -0.159     +0.027     +0.257
      +0.279     -0.018     -0.395
      -0.201     +0.032     -0.217
      -0.144     -0.042     -0.204
      -0.041     +0.125     +0.240
      -0.014     -0.001     -0.273
      -0.034     -0.006     -0.280
      -0.061     -0.117     +0.235
      -0.106     -0.238     +0.063
vibration  12
      -0.063     -0.136     -0.016
      +0.069     +0.263     -0.053
      -0.066     -0.463     -0.050
      -0.227     -0.070     -0.018
      +0.310     -0.058     +0.088
      +0.029     +0.176     +0.267
      +0.062     +0.063     -0.400
      -0.251     +0.078     +0.164
      -0.012     -0.021     -0.370
      +0.043     +0.098     -0.002
vibration  13
      -0.007     -0.056     -0.004
      -0.022     +0.157     -0.015
      -0.062     -0.125     +0.147
      -0.138     -0.027     -0.010
      +0.153     -0.027     +0.052
      +0.167     +0.285     -0.321
      +0.269     +0.024     +0.312
      -0.103     +0.033     +0.080
      -0.178     -0.354     +0.125
      -0.212     -0.491     +0.154
vibration  14
      -0.013     -0.064     -0.000
      +0.003     +0.222     +0.001
      +0.056     -0.023     -0.006
      -0.206     -0.033     -0.051
      +0.181     -0.029     +0.029
      -0.089     -0.271     +0.041
      +0.316     +0.005     +0.399
      -0.371     -0.021     -0.533
      +0.082     +0.179     +0.079
      +0.087     +0.200     -0.073
vibration  15
      -0.323     +0.025     -0.029
      +0.169     -0.026     -0.090
      +0.262     +0.045     +0.465
      -0.141     -0.118     -0.032
      -0.173     +0.128     -0.020
      -0.030     +0.043     -0.167
      -0.332     -0.028     -0.349
      -0.282     +0.005     -0.346
      -0.045     -0.091     +0.080
      -0.038     -0.086     +0.024
vibration  16
      +0.446     -0.034     -0.066
      -0.403     +0.006     -0.228
      +0.170     +0.019     +0.218
      +0.329     +0.113     +0.329
      +0.311     -0.121     +0.288
      -0.020     +0.005     -0.054
      -0.093     +0.015     -0.171
      -0.078     -0.027     -0.175
      -0.012     -0.020     +0.025
      -0.009     -0.019     +0.004
vibration  17
      -0.074     +0.007     +0.009
      -0.075     -0.003     +0.046
      +0.238     -0.003     -0.137
      +0.141     +0.151     -0.132
      +0.140     -0.150     -0.123
      +0.004     -0.005     +0.004
      -0.402     -0.397     +0.281
      -0.394     +0.416     +0.259
      +0.006     +0.008     +0.002
      +0.001     +0.002     -0.001
vibration  18
      -0.014     -0.711     +0.000
      +0.024     +0.195     +0.002
      +0.004     +0.046     -0.009
      +0.094     -0.074     +0.452
      -0.160     -0.027     -0.454
      +0.001     -0.005     -0.003
      -0.031     -0.009     +0.019
      +0.011     +0.015     +0.004
      -0.000     -0.002     +0.011
      -0.000     -0.002     +0.001
vibration  19
      +0.311     +0.033     -0.040
      +0.089     -0.008     -0.152
      +0.060     -0.007     -0.162
      -0.330     -0.361     +0.335
      -0.313     +0.365     +0.376
      +0.003     -0.008     +0.032
      -0.103     -0.153     +0.152
      -0.106     +0.162     +0.141
      +0.008     +0.017     -0.004
      +0.004     +0.010     -0.003
vibration  20
      -0.003     -0.000     +0.050
      +0.000     -0.002     -0.009
      -0.195     +0.045     +0.136
      +0.016     -0.018     -0.007
      +0.019     +0.024     -0.010
      +0.001     +0.002     +0.001
      +0.358     -0.630     -0.249
      +0.280     +0.472     -0.220
      -0.000     -0.004     -0.003
      +0.001     +0.001     -0.001
vibration  21
      +0.004     +0.001     -0.566
      +0.170     +0.004     +0.063
      -0.022     +0.002     +0.006
      -0.267     +0.455     +0.179
      -0.281     -0.469     +0.184
      -0.000     +0.000     -0.001
      +0.019     -0.038     -0.015
      +0.016     +0.030     -0.015
      -0.000     -0.001     +0.000
      -0.000     +0.000     -0.000
vibration  22
      -0.000     +0.002     +0.008
      +0.001     +0.026     -0.003
      -0.027     -0.314     +0.027
      +0.022     -0.042     -0.019
      -0.022     -0.044     +0.020
      +0.000     +0.000     +0.002
      -0.271     +0.470     +0.186
      +0.360     +0.598     -0.278
      +0.000     +0.004     -0.006
      -0.000     -0.000     -0.000
vibration  23
      +0.002     -0.003     -0.604
      -0.084     -0.199     +0.229
      -0.004     -0.016     +0.003
      -0.064     +0.103     +0.045
      +0.351     +0.584     -0.227
      -0.001     -0.000     -0.001
      -0.011     +0.019     +0.006
      +0.028     +0.038     -0.017
      +0.000     +0.001     -0.001
      +0.000     -0.000     +0.000
vibration  24
      -0.002     -0.004     +0.484
      +0.071     -0.244     -0.188
      +0.001     -0.017     -0.000
      -0.371     +0.627     +0.247
      +0.131     +0.213     -0.088
      +0.000     +0.000     +0.001
      -0.025     +0.035     +0.012
      +0.017     +0.026     -0.010
      +0.000     +0.000     -0.001
      +0.000     -0.000     +0.000
