[Molden Format]
[FR-COORD] # Coordinates in bohr
  H    -2.102119    -0.000000    -3.872426 
  C    -2.102119    -0.000000    -1.820637 
  C    +0.636038    -0.000000    -0.820176 
  H    -3.102173    +1.665631    -1.161315 
  H    -3.102173    -1.665631    -1.161315 
  O    +0.537515    -0.000000    +1.896712 
  H    +1.633337    -1.670803    -1.533338 
  H    +1.633337    +1.670805    -1.533336 
  H    +2.473797    -0.000000    +2.454614 
  H    +4.514276    -0.000000    +2.851089 
[FREQ] # Frequencies in cm^-1
 -1789.1570
  120.4555
  226.3347
  275.5983
  447.7949
  636.6959
  954.2935
 1040.3949
 1121.1707
 1271.8399
 1342.3338
 1393.4276
 1484.6752
 1506.3693
 1674.5995
 1735.8449
 1819.6162
 1823.8619
 1849.7781
 3546.8782
 3574.0956
 3659.1106
 3758.7002
 3760.7709
[FR-NORM-COORD] # Displacements in bohr
vibration  1
      +0.006     +0.000     +0.002
      -0.008     -0.000     +0.006
      +0.008     -0.000     -0.039
      -0.002     +0.002     -0.002
      -0.002     -0.002     -0.002
      -0.051     +0.000     +0.000
      -0.001     -0.004     +0.009
      -0.001     +0.004     +0.009
      +0.753     +0.000     +0.197
      -0.611     +0.000     -0.129
vibration  2
      -0.000     +0.053     +0.000
      +0.000     +0.273     +0.000
      +0.000     -0.280     -0.000
      +0.108     +0.152     -0.021
      -0.108     +0.152     +0.021
      -0.000     -0.360     -0.000
      -0.086     -0.131     -0.007
      +0.086     -0.131     +0.007
      -0.000     +0.228     +0.000
      -0.000     +0.737     +0.000
vibration  3
      -0.000     +0.558     +0.000
      -0.000     +0.021     +0.000
      +0.000     -0.253     -0.000
      -0.093     -0.226     +0.448
      +0.093     -0.226     -0.448
      +0.000     +0.215     -0.000
      -0.062     -0.137     +0.063
      +0.062     -0.137     -0.063
      -0.000     +0.051     -0.000
      -0.000     +0.029     +0.000
vibration  4
      +0.157     +0.000     -0.060
      +0.109     +0.000     -0.205
      -0.066     -0.000     +0.241
      -0.009     +0.001     -0.124
      -0.009     -0.001     -0.124
      -0.125     +0.000     +0.296
      +0.004     +0.003     +0.096
      +0.004     -0.003     +0.096
      -0.010     +0.000     -0.016
      +0.153     +0.000     -0.824
vibration  5
      -0.158     -0.000     +0.115
      +0.222     -0.000     +0.390
      +0.340     +0.000     -0.158
      +0.138     -0.004     +0.234
      +0.138     +0.004     +0.234
      -0.435     -0.000     -0.268
      +0.110     -0.006     -0.014
      +0.110     +0.006     -0.014
      -0.238     -0.000     +0.109
      -0.145     +0.000     -0.311
vibration  6
      -0.000     +0.014     +0.000
      +0.000     +0.016     +0.000
      +0.000     -0.043     -0.000
      +0.021     +0.015     +0.006
      -0.021     +0.015     -0.006
      -0.000     -0.175     -0.000
      +0.024     +0.013     -0.030
      -0.024     +0.013     +0.030
      -0.000     +0.900     -0.000
      -0.000     -0.390     -0.000
vibration  7
      -0.000     +0.174     +0.000
      +0.000     -0.139     +0.000
      -0.000     -0.243     -0.000
      +0.408     +0.165     +0.104
      -0.408     +0.165     -0.104
      +0.000     +0.110     -0.000
      +0.430     +0.215     -0.061
      -0.430     +0.215     +0.061
      +0.000     -0.046     -0.000
      -0.000     +0.009     -0.000
vibration  8
      +0.394     -0.000     +0.090
      +0.368     +0.000     +0.288
      -0.318     +0.000     +0.194
      +0.062     +0.017     -0.042
      +0.062     -0.017     -0.042
      -0.095     +0.000     -0.245
      -0.118     +0.002     +0.027
      -0.118     -0.002     +0.027
      +0.069     -0.000     -0.588
      -0.123     -0.000     +0.059
vibration  9
      -0.482     -0.000     -0.078
      +0.063     -0.000     -0.267
      +0.006     +0.000     -0.062
      +0.153     -0.031     +0.208
      +0.153     +0.031     +0.208
      -0.164     +0.000     +0.294
      +0.119     +0.002     +0.147
      +0.119     -0.002     +0.147
      +0.197     +0.000     -0.559
      +0.055     +0.000     +0.089
vibration  10
      -0.009     +0.000     +0.001
      +0.389     -0.000     -0.015
      -0.411     +0.000     -0.378
      +0.209     +0.000     +0.118
      +0.209     -0.000     +0.118
      -0.051     -0.000     +0.291
      -0.232     -0.003     -0.234
      -0.232     +0.003     -0.234
      +0.062     -0.000     +0.286
      +0.174     -0.000     +0.018
vibration  11
      -0.000     +0.141     -0.000
      -0.000     -0.244     -0.000
      +0.000     +0.445     +0.000
      +0.275     +0.070     +0.061
      -0.275     +0.070     -0.061
      +0.000     -0.183     +0.000
      -0.089     -0.125     +0.487
      +0.089     -0.125     -0.487
      -0.000     +0.010     -0.000
      -0.000     -0.005     -0.000
vibration  12
      +0.283     +0.000     +0.069
      -0.146     -0.000     +0.240
      +0.302     +0.000     -0.381
      -0.154     +0.037     -0.184
      -0.154     -0.037     -0.184
      -0.364     -0.000     +0.309
      +0.073     -0.001     -0.138
      +0.073     +0.001     -0.138
      +0.259     +0.000     -0.204
      +0.300     +0.000     +0.084
vibration  13
      +0.004     -0.000     +0.004
      -0.011     +0.000     +0.021
      +0.149     -0.000     -0.165
      -0.039     -0.001     -0.046
      -0.039     +0.001     -0.046
      +0.272     -0.000     +0.402
      -0.049     +0.022     -0.240
      -0.049     -0.022     -0.240
      -0.401     -0.000     -0.280
      -0.580     -0.000     -0.102
vibration  14
      +0.000     -0.112     +0.000
      +0.000     +0.321     +0.000
      -0.000     -0.174     +0.000
      -0.291     -0.053     -0.057
      +0.291     -0.053     +0.057
      -0.000     -0.074     -0.000
      +0.400     +0.009     +0.416
      -0.400     +0.009     -0.416
      +0.000     -0.006     +0.000
      +0.000     -0.002     +0.000
vibration  15
      -0.346     +0.000     -0.024
      +0.180     +0.000     -0.072
      +0.286     -0.000     +0.424
      -0.178     -0.126     -0.048
      -0.178     +0.126     -0.048
      -0.155     -0.000     -0.093
      -0.305     -0.033     -0.338
      -0.305     +0.033     -0.338
      +0.125     -0.000     -0.060
      +0.105     -0.000     +0.024
vibration  16
      +0.432     -0.000     -0.067
      -0.405     +0.000     -0.226
      +0.212     -0.000     +0.221
      +0.308     +0.114     +0.297
      +0.308     -0.114     +0.297
      -0.072     -0.000     -0.014
      -0.103     +0.010     -0.193
      -0.103     -0.010     -0.193
      +0.047     -0.000     -0.056
      +0.031     -0.000     +0.008
vibration  17
      +0.000     +0.715     -0.000
      +0.000     -0.195     -0.000
      -0.000     -0.046     -0.000
      -0.129     +0.051     -0.453
      +0.129     +0.051     +0.453
      -0.000     +0.004     +0.000
      +0.023     -0.002     -0.005
      -0.023     -0.002     +0.005
      +0.000     +0.001     -0.000
      -0.000     +0.000     +0.000
vibration  18
      -0.255     +0.000     +0.032
      -0.111     -0.000     +0.133
      +0.146     -0.000     -0.017
      +0.307     +0.343     -0.324
      +0.307     -0.343     -0.324
      +0.009     -0.000     -0.005
      -0.242     -0.220     +0.129
      -0.242     +0.220     +0.129
      -0.013     -0.000     -0.015
      -0.008     -0.000     -0.002
vibration  19
      +0.200     -0.000     -0.024
      +0.022     +0.000     -0.086
      +0.195     -0.000     -0.224
      -0.169     -0.192     +0.195
      -0.169     +0.192     +0.195
      +0.032     -0.000     +0.040
      -0.321     -0.372     +0.290
      -0.321     +0.372     +0.290
      -0.042     -0.000     -0.019
      -0.027     -0.000     -0.005
vibration  20
      -0.003     +0.000     +0.035
      +0.004     -0.000     -0.007
      -0.198     +0.000     +0.135
      +0.012     -0.011     -0.004
      +0.012     +0.011     -0.004
      -0.002     -0.000     -0.000
      +0.323     -0.557     -0.235
      +0.323     +0.557     -0.235
      +0.009     -0.000     +0.003
      -0.001     +0.000     -0.001
vibration  21
      +0.003     +0.000     -0.575
      +0.169     -0.000     +0.065
      -0.018     -0.000     +0.002
      -0.272     +0.459     +0.183
      -0.272     -0.459     +0.183
      -0.000     -0.000     -0.001
      +0.009     -0.021     -0.009
      +0.009     +0.021     -0.009
      +0.000     -0.000     +0.000
      +0.000     -0.000     +0.000
vibration  22
      -0.000     -0.002     -0.000
      -0.000     -0.021     +0.000
      -0.000     +0.317     -0.000
      -0.015     +0.033     +0.016
      +0.015     +0.033     -0.016
      +0.000     -0.000     -0.000
      +0.322     -0.541     -0.228
      -0.322     -0.541     +0.228
      +0.000     -0.002     -0.000
      +0.000     -0.000     -0.000
vibration  23
      -0.003     -0.000     +0.769
      +0.111     -0.000     -0.296
      +0.003     -0.000     -0.002
      -0.189     +0.321     +0.124
      -0.189     -0.321     +0.124
      +0.001     +0.000     +0.001
      -0.008     +0.008     +0.004
      -0.008     -0.008     +0.004
      -0.001     +0.000     +0.000
      +0.000     -0.000     +0.000
vibration  24
      +0.000     -0.004     -0.000
      -0.000     -0.316     +0.000
      -0.000     -0.017     +0.000
      -0.324     +0.544     +0.218
      +0.324     +0.544     -0.218
      -0.000     +0.000     -0.000
      -0.023     +0.032     +0.011
      +0.023     +0.032     -0.011
      +0.000     +0.000     -0.000
      +0.000     +0.000     +0.000
