[Molden Format]
[FR-COORD] # Coordinates in bohr
  H    -1.952661    -0.000000    -3.758950 
  C    -1.952661    -0.000000    -1.707161 
  C    +0.785496    -0.000000    -0.706700 
  H    -2.952715    +1.665631    -1.047839 
  H    -2.952715    -1.665631    -1.047839 
  O    +0.686973    -0.000000    +2.010187 
  H    +1.782795    -1.670803    -1.419862 
  H    +1.782795    +1.670805    -1.419860 
  H    +2.623254    -0.000000    +2.568089 
  H    +4.663733    -0.000000    +2.964565 
[FREQ] # Frequencies in cm^-1
 -2525.9664
  151.7882
  226.7193
  348.8140
  483.6739
  888.0923
  958.5626
 1076.2571
 1237.7267
 1342.4485
 1344.0693
 1506.4023
 1564.5635
 1697.0357
 1753.3176
 1819.6167
 1823.4693
 1844.2125
 1974.7393
 3547.0170
 3574.0958
 3659.1199
 3758.7030
 3760.7709
[FR-NORM-COORD] # Displacements in bohr
vibration  1
      +0.007     +0.000     +0.002
      -0.006     -0.000     +0.006
      +0.008     -0.000     -0.034
      -0.002     +0.002     -0.002
      -0.002     -0.002     -0.002
      -0.038     +0.000     +0.002
      -0.002     -0.003     +0.010
      -0.002     +0.003     +0.010
      +0.756     +0.000     +0.197
      -0.608     +0.000     -0.129
vibration  2
      +0.000     +0.015     -0.000
      +0.000     +0.216     -0.000
      +0.000     -0.212     +0.000
      +0.092     +0.133     -0.038
      -0.092     +0.133     +0.038
      -0.000     -0.303     -0.000
      -0.062     -0.096     -0.009
      +0.062     -0.096     +0.009
      -0.000     +0.296     +0.000
      -0.000     +0.805     +0.000
vibration  3
      +0.000     -0.558     -0.000
      -0.000     -0.026     -0.000
      -0.000     +0.257     +0.000
      +0.091     +0.223     -0.447
      -0.091     +0.223     +0.447
      +0.000     -0.211     +0.000
      +0.063     +0.139     -0.063
      -0.063     +0.139     +0.063
      +0.000     -0.054     -0.000
      +0.000     -0.070     -0.000
vibration  4
      +0.173     +0.000     -0.083
      +0.019     +0.000     -0.282
      -0.171     -0.000     +0.236
      -0.049     +0.002     -0.170
      -0.049     -0.002     -0.170
      +0.065     +0.000     +0.316
      -0.034     +0.005     +0.080
      -0.034     -0.005     +0.080
      +0.065     +0.000     -0.083
      +0.198     +0.000     -0.753
vibration  5
      -0.123     -0.000     +0.096
      +0.234     -0.000     +0.324
      +0.292     +0.000     -0.104
      +0.131     -0.004     +0.200
      +0.131     +0.004     +0.200
      -0.492     -0.000     -0.199
      +0.104     -0.005     +0.011
      +0.104     +0.005     +0.011
      -0.161     -0.000     +0.040
      -0.039     +0.000     -0.522
vibration  6
      -0.000     +0.048     +0.000
      +0.000     -0.016     +0.000
      -0.000     -0.093     -0.000
      +0.105     +0.047     +0.029
      -0.105     +0.047     -0.029
      +0.000     -0.094     -0.000
      +0.121     +0.060     -0.040
      -0.121     +0.060     +0.040
      +0.000     +0.875     -0.000
      +0.000     -0.384     -0.000
vibration  7
      +0.000     -0.168     -0.000
      +0.000     +0.139     -0.000
      +0.000     +0.227     +0.000
      -0.395     -0.158     -0.100
      +0.395     -0.158     +0.100
      -0.000     -0.131     +0.000
      -0.413     -0.207     +0.054
      +0.413     -0.207     -0.054
      -0.000     +0.247     +0.000
      -0.000     -0.092     +0.000
vibration  8
      +0.584     +0.000     +0.116
      +0.308     +0.000     +0.378
      -0.326     -0.000     +0.168
      -0.010     +0.030     -0.134
      -0.010     -0.030     -0.134
      -0.016     -0.000     -0.377
      -0.182     -0.001     -0.063
      -0.182     +0.001     -0.063
      -0.012     -0.000     -0.121
      -0.064     -0.000     +0.016
vibration  9
      -0.241     -0.000     -0.037
      +0.453     +0.000     -0.146
      -0.491     +0.000     -0.170
      +0.293     -0.021     +0.234
      +0.293     +0.021     +0.234
      -0.019     -0.000     +0.218
      -0.141     +0.002     -0.022
      -0.141     -0.002     -0.022
      +0.107     -0.000     -0.238
      +0.033     -0.000     +0.072
vibration  10
      +0.000     +0.141     +0.000
      +0.000     -0.243     +0.000
      +0.000     +0.445     -0.000
      +0.274     +0.070     +0.061
      -0.274     +0.070     -0.061
      -0.000     -0.184     +0.000
      -0.089     -0.125     +0.487
      +0.089     -0.125     -0.487
      -0.000     +0.019     +0.000
      +0.000     -0.010     -0.000
vibration  11
      +0.219     -0.000     +0.044
      +0.037     +0.000     +0.148
      +0.080     -0.000     -0.505
      -0.036     +0.026     -0.100
      -0.036     -0.026     -0.100
      -0.072     +0.000     +0.467
      -0.140     +0.000     -0.373
      -0.140     -0.000     -0.373
      -0.051     -0.000     +0.304
      +0.070     +0.000     -0.032
vibration  12
      +0.000     +0.112     +0.000
      -0.000     -0.321     +0.000
      +0.000     +0.175     -0.000
      +0.291     +0.053     +0.057
      -0.291     +0.053     -0.057
      -0.000     +0.074     +0.000
      -0.400     -0.009     -0.416
      +0.400     -0.009     +0.416
      +0.000     +0.010     -0.000
      +0.000     +0.002     +0.000
vibration  13
      -0.191     +0.000     -0.059
      +0.074     -0.000     -0.197
      -0.029     +0.000     +0.371
      +0.060     -0.047     +0.114
      +0.060     +0.047     +0.114
      +0.193     +0.000     -0.222
      -0.255     -0.015     -0.194
      -0.255     +0.015     -0.194
      -0.231     -0.000     +0.608
      -0.113     -0.000     -0.108
vibration  14
      +0.433     -0.000     -0.016
      -0.294     -0.000     -0.062
      -0.221     +0.000     -0.227
      +0.297     +0.150     +0.178
      +0.297     -0.150     +0.178
      +0.116     +0.000     -0.038
      +0.169     +0.013     +0.232
      +0.169     -0.013     +0.232
      -0.087     +0.000     +0.383
      +0.035     +0.000     -0.035
vibration  15
      +0.323     -0.000     -0.058
      -0.326     +0.000     -0.194
      +0.308     -0.000     +0.279
      +0.205     +0.065     +0.242
      +0.205     -0.065     +0.242
      -0.123     -0.000     +0.051
      -0.119     +0.026     -0.280
      -0.119     -0.026     -0.280
      +0.089     -0.000     -0.390
      -0.031     -0.000     +0.032
vibration  16
      -0.000     -0.715     +0.000
      -0.000     +0.195     +0.000
      +0.000     +0.046     -0.000
      +0.129     -0.051     +0.453
      -0.129     -0.051     -0.453
      +0.000     -0.004     -0.000
      -0.023     +0.002     +0.005
      +0.023     +0.002     -0.005
      -0.000     -0.001     +0.000
      +0.000     -0.000     -0.000
vibration  17
      -0.236     +0.000     +0.028
      -0.115     -0.000     +0.119
      +0.178     -0.000     -0.007
      +0.295     +0.326     -0.301
      +0.295     -0.326     -0.301
      -0.029     -0.000     -0.017
      -0.275     -0.246     +0.135
      -0.275     +0.246     +0.135
      +0.041     -0.000     -0.027
      +0.054     -0.000     +0.013
vibration  18
      +0.214     -0.000     -0.029
      +0.030     +0.000     -0.104
      +0.192     -0.000     -0.178
      -0.191     -0.220     +0.226
      -0.191     +0.220     +0.226
      -0.052     -0.000     -0.007
      -0.310     -0.346     +0.261
      -0.310     +0.346     +0.261
      +0.087     -0.000     +0.031
      +0.141     -0.000     +0.027
vibration  19
      -0.039     -0.000     -0.001
      +0.012     +0.000     -0.007
      -0.040     -0.000     +0.138
      +0.014     +0.009     -0.007
      +0.014     -0.009     -0.007
      -0.295     -0.000     -0.174
      +0.039     +0.083     -0.070
      +0.039     -0.083     -0.070
      +0.509     -0.000     +0.267
      +0.697     +0.000     +0.129
vibration  20
      -0.003     +0.000     +0.035
      +0.004     -0.000     -0.007
      -0.198     +0.000     +0.135
      +0.012     -0.011     -0.004
      +0.012     +0.011     -0.004
      -0.002     -0.000     -0.001
      +0.323     -0.557     -0.235
      +0.323     +0.557     -0.235
      +0.011     -0.000     +0.004
      +0.000     +0.000     -0.000
vibration  21
      +0.003     +0.000     -0.575
      +0.169     -0.000     +0.065
      -0.018     -0.000     +0.002
      -0.272     +0.459     +0.183
      -0.272     -0.459     +0.183
      -0.000     -0.000     -0.001
      +0.009     -0.021     -0.009
      +0.009     +0.021     -0.009
      +0.000     -0.000     +0.000
      +0.000     -0.000     +0.000
vibration  22
      -0.000     -0.002     -0.000
      -0.000     -0.021     +0.000
      -0.000     +0.317     -0.000
      -0.015     +0.033     +0.016
      +0.015     +0.033     -0.016
      +0.000     -0.000     -0.000
      +0.322     -0.541     -0.228
      -0.322     -0.541     +0.228
      +0.000     -0.003     -0.000
      +0.000     -0.000     -0.000
vibration  23
      -0.003     -0.000     +0.769
      +0.111     -0.000     -0.296
      +0.003     -0.000     -0.002
      -0.189     +0.321     +0.124
      -0.189     -0.321     +0.124
      +0.001     +0.000     +0.001
      -0.008     +0.008     +0.004
      -0.008     -0.008     +0.004
      -0.002     +0.000     +0.001
      -0.000     -0.000     +0.000
vibration  24
      +0.000     -0.004     -0.000
      -0.000     -0.316     +0.000
      -0.000     -0.017     +0.000
      -0.324     +0.544     +0.218
      +0.324     +0.544     -0.218
      -0.000     +0.000     -0.000
      -0.023     +0.032     +0.011
      +0.023     +0.032     -0.011
      +0.000     +0.000     -0.000
      +0.000     +0.000     +0.000
