 Entering Gaussian System, Link 0=/home/programs/G09_64/g09/g09
 Initial command:
 /home/programs/G09_64/g09/l1.exe /scratch/Gau-32376.inp -scrdir=/scratch/
 Entering Link 1 = /home/programs/G09_64/g09/l1.exe PID=     32378.
  
 Copyright (c) 1988,1990,1992,1993,1995,1998,2003,2009,2010,
            Gaussian, Inc.  All Rights Reserved.
  
 This is part of the Gaussian(R) 09 program.  It is based on
 the Gaussian(R) 03 system (copyright 2003, Gaussian, Inc.),
 the Gaussian(R) 98 system (copyright 1998, Gaussian, Inc.),
 the Gaussian(R) 94 system (copyright 1995, Gaussian, Inc.),
 the Gaussian 92(TM) system (copyright 1992, Gaussian, Inc.),
 the Gaussian 90(TM) system (copyright 1990, Gaussian, Inc.),
 the Gaussian 88(TM) system (copyright 1988, Gaussian, Inc.),
 the Gaussian 86(TM) system (copyright 1986, Carnegie Mellon
 University), and the Gaussian 82(TM) system (copyright 1983,
 Carnegie Mellon University). Gaussian is a federally registered
 trademark of Gaussian, Inc.
  
 This software contains proprietary and confidential information,
 including trade secrets, belonging to Gaussian, Inc.
  
 This software is provided under written license and may be
 used, copied, transmitted, or stored only in accord with that
 written license.
  
 The following legend is applicable only to US Government
 contracts under FAR:
  
                    RESTRICTED RIGHTS LEGEND
  
 Use, reproduction and disclosure by the US Government is
 subject to restrictions as set forth in subparagraphs (a)
 and (c) of the Commercial Computer Software - Restricted
 Rights clause in FAR 52.227-19.
  
 Gaussian, Inc.
 340 Quinnipiac St., Bldg. 40, Wallingford CT 06492
  
  
 ---------------------------------------------------------------
 Warning -- This program may not be used in any manner that
 competes with the business of Gaussian, Inc. or will provide
 assistance to any competitor of Gaussian, Inc.  The licensee
 of this program is prohibited from giving any competitor of
 Gaussian, Inc. access to this program.  By using this program,
 the user acknowledges that Gaussian, Inc. is engaged in the
 business of creating and licensing software in the field of
 computational chemistry and represents and warrants to the
 licensee that it is not a competitor of Gaussian, Inc. and that
 it will not use this program in any manner prohibited above.
 ---------------------------------------------------------------
  

 Cite this work as:
 Gaussian 09, Revision B.01,
 M. J. Frisch, G. W. Trucks, H. B. Schlegel, G. E. Scuseria, 
 M. A. Robb, J. R. Cheeseman, G. Scalmani, V. Barone, B. Mennucci, 
 G. A. Petersson, H. Nakatsuji, M. Caricato, X. Li, H. P. Hratchian, 
 A. F. Izmaylov, J. Bloino, G. Zheng, J. L. Sonnenberg, M. Hada, 
 M. Ehara, K. Toyota, R. Fukuda, J. Hasegawa, M. Ishida, T. Nakajima, 
 Y. Honda, O. Kitao, H. Nakai, T. Vreven, J. A. Montgomery, Jr., 
 J. E. Peralta, F. Ogliaro, M. Bearpark, J. J. Heyd, E. Brothers, 
 K. N. Kudin, V. N. Staroverov, T. Keith, R. Kobayashi, J. Normand, 
 K. Raghavachari, A. Rendell, J. C. Burant, S. S. Iyengar, J. Tomasi, 
 M. Cossi, N. Rega, J. M. Millam, M. Klene, J. E. Knox, J. B. Cross, 
 V. Bakken, C. Adamo, J. Jaramillo, R. Gomperts, R. E. Stratmann, 
 O. Yazyev, A. J. Austin, R. Cammi, C. Pomelli, J. W. Ochterski, 
 R. L. Martin, K. Morokuma, V. G. Zakrzewski, G. A. Voth, 
 P. Salvador, J. J. Dannenberg, S. Dapprich, A. D. Daniels, 
 O. Farkas, J. B. Foresman, J. V. Ortiz, J. Cioslowski, 
 and D. J. Fox, Gaussian, Inc., Wallingford CT, 2010.
 
 ******************************************
 Gaussian 09:  AM64L-G09RevB.01 12-Aug-2010
                26-Nov-2019 
 ******************************************
 %nproc=8
 Will use up to    8 processors via shared memory.
 %mem=8Gb
 --------------------------------------------------------------------
 #p hf sto-3g scf=(incore,verytight) iop(99/9=1,99/14=3) freq=noraman
 --------------------------------------------------------------------
 1/10=4,30=1,38=1/1,3;
 2/12=2,17=6,18=5,40=1/2;
 3/6=3,11=9,16=1,25=1,30=1,71=2/1,2,3;
 4//1;
 5/5=3,17=3,38=5,98=1/2;
 8/6=4,10=90,11=11/1;
 11/6=1,8=1,9=11,15=111,16=1/1,2,10;
 10/6=1,20=2,30=1/2;
 6/7=2,8=2,9=2,10=2,18=1,28=1/1;
 7/8=1,10=1,25=1/1,2,3,16;
 1/10=4,30=1/3;
 99/9=1,14=3/99;
 Leave Link    1 at Tue Nov 26 11:11:55 2019, MaxMem= 1073741824 cpu:       0.2
 (Enter /home/programs/G09_64/g09/l101.exe)
 -------------------------
 --Frequency calculation--
 -------------------------
 Symbolic Z-matrix:
 Charge =  0 Multiplicity = 1
 H
 C                    1    ch2
 C                    2    cc3      1    cch3
 H                    2    hc4      1    hch4     3    dih4     0
 H                    2    hc5      1    hch5     3    dih5     0
 O                    3    oc6      2    occ6     1    dih6     0
 H                    3    hc7      2    hcc7     6    dih7     0
 H                    3    hc8      2    hcc8     6    dih8     0
 H                    6    ho9      3    hoc9     2    dtor1    0
       Variables:
  dih7                121.38111                  
  dtor1               180.                       
  hch4                108.76283                  
  dih5               -120.99688                  
  hcc7                109.43842                  
  hc4                   1.08557                  
  hc5                   1.08557                  
  occ6                108.41956                  
  hc8                   1.09742                  
  dih6               -179.99992                  
  cc3                   1.54169                  
  hoc9                103.95782                  
  oc6                   1.43553                  
  ch2                   1.08576                  
  hc7                   1.09742                  
  cch3                110.18833                  
  dih8               -121.38099                  
  hch5                108.76285                  
  ho9                   0.99097                  
  hcc8                109.43843                  
  dih4                120.9969                   
 
 NAtoms=      9 NQM=      9 NQMF=      0 NMic=      0 NMicF=      0 NTot=      9.
                    Isotopes and Nuclear Properties:
 (Nuclear quadrupole moments (NQMom) in fm**2, nuclear magnetic moments (NMagM)
  in nuclear magnetons)

  Atom         1           2           3           4           5           6           7           8           9
 IAtWgt=           1          12          12           1           1          16           1           1           1
 AtmWgt=   1.0078250  12.0000000  12.0000000   1.0078250   1.0078250  15.9949146   1.0078250   1.0078250   1.0078250
 NucSpn=           1           0           0           1           1           0           1           1           1
 AtZEff=   0.0000000   0.0000000   0.0000000   0.0000000   0.0000000   0.0000000   0.0000000   0.0000000   0.0000000
 NQMom=    0.0000000   0.0000000   0.0000000   0.0000000   0.0000000   0.0000000   0.0000000   0.0000000   0.0000000
 NMagM=    2.7928460   0.0000000   0.0000000   2.7928460   2.7928460   0.0000000   2.7928460   2.7928460   2.7928460
 Leave Link  101 at Tue Nov 26 11:11:55 2019, MaxMem= 1073741824 cpu:       0.6
 (Enter /home/programs/G09_64/g09/l103.exe)

 GradGradGradGradGradGradGradGradGradGradGradGradGradGradGradGradGradGrad
 Berny optimization.
 Initialization pass.
                       ----------------------------
                       !    Initial Parameters    !
                       ! (Angstroms and Degrees)  !
 ----------------------                            ----------------------
 !      Name          Value   Derivative information (Atomic Units)     !
 ------------------------------------------------------------------------
 !      dih7       121.3811   calculate D2E/DX2 analytically            !
 !      dtor1      180.0      calculate D2E/DX2 analytically            !
 !      hch4       108.7628   calculate D2E/DX2 analytically            !
 !      dih5      -120.9969   calculate D2E/DX2 analytically            !
 !      hcc7       109.4384   calculate D2E/DX2 analytically            !
 !       hc4         1.0856   calculate D2E/DX2 analytically            !
 !       hc5         1.0856   calculate D2E/DX2 analytically            !
 !      occ6       108.4196   calculate D2E/DX2 analytically            !
 !       hc8         1.0974   calculate D2E/DX2 analytically            !
 !      dih6      -179.9999   calculate D2E/DX2 analytically            !
 !       cc3         1.5417   calculate D2E/DX2 analytically            !
 !      hoc9       103.9578   calculate D2E/DX2 analytically            !
 !       oc6         1.4355   calculate D2E/DX2 analytically            !
 !       ch2         1.0858   calculate D2E/DX2 analytically            !
 !       hc7         1.0974   calculate D2E/DX2 analytically            !
 !      cch3       110.1883   calculate D2E/DX2 analytically            !
 !      dih8      -121.381    calculate D2E/DX2 analytically            !
 !      hch5       108.7629   calculate D2E/DX2 analytically            !
 !       ho9         0.991    calculate D2E/DX2 analytically            !
 !      hcc8       109.4384   calculate D2E/DX2 analytically            !
 !      dih4       120.9969   calculate D2E/DX2 analytically            !
 ------------------------------------------------------------------------
 Trust Radius=3.00D-01 FncErr=1.00D-07 GrdErr=1.00D-07
 Number of steps in this run=      2 maximum allowed number of steps=      2.
 GradGradGradGradGradGradGradGradGradGradGradGradGradGradGradGradGradGrad

 Leave Link  103 at Tue Nov 26 11:11:55 2019, MaxMem= 1073741824 cpu:       0.1
 (Enter /home/programs/G09_64/g09/l202.exe)
                          Input orientation:                          
 ---------------------------------------------------------------------
 Center     Atomic      Atomic             Coordinates (Angstroms)
 Number     Number       Type             X           Y           Z
 ---------------------------------------------------------------------
      1          1           0        0.000000    0.000000    0.000000
      2          6           0        0.000000    0.000000    1.085760
      3          6           0        1.446974    0.000000    1.617808
      4          1           0       -0.529350    0.881094    1.434935
      5          1           0       -0.529350   -0.881095    1.434936
      6          8           0        1.402665   -0.000002    3.052654
      7          1           0        1.975724   -0.883488    1.238068
      8          1           0        1.975722    0.883491    1.238072
      9          1           0        2.356539   -0.000002    3.321254
 ---------------------------------------------------------------------
                    Distance matrix (angstroms):
                    1          2          3          4          5
     1  H    0.000000
     2  C    1.085760   0.000000
     3  C    2.170492   1.541690   0.000000
     4  H    1.765100   1.085570   2.171549   0.000000
     5  H    1.765100   1.085570   2.171549   1.762189   0.000000
     6  O    3.359489   2.415811   1.435530   2.669462   2.669460
     7  H    2.493361   2.169616   1.097420   3.070489   2.512798
     8  H    2.493363   2.169616   1.097420   2.512797   3.070489
     9  H    4.072346   3.248185   1.931071   3.558494   3.558493
                    6          7          8          9
     6  O    0.000000
     7  H    2.098015   0.000000
     8  H    2.098014   1.766979   0.000000
     9  H    0.990970   2.294609   2.294608   0.000000
 Stoichiometry    C2H6O
 Framework group  C1[X(C2H6O)]
 Deg. of freedom    21
 Full point group                 C1      NOp   1
 Largest Abelian subgroup         C1      NOp   1
 Largest concise Abelian subgroup C1      NOp   1
                         Standard orientation:                         
 ---------------------------------------------------------------------
 Center     Atomic      Atomic             Coordinates (Angstroms)
 Number     Number       Type             X           Y           Z
 ---------------------------------------------------------------------
      1          1           0       -2.074392    0.479173   -0.000001
      2          6           0       -1.243048   -0.219211    0.000000
      3          6           0        0.095056    0.546482    0.000000
      4          1           0       -1.316182   -0.849120    0.881095
      5          1           0       -1.316180   -0.849122   -0.881094
      6          8           0        1.165188   -0.410370    0.000000
      7          1           0        0.144401    1.195591   -0.883489
      8          1           0        0.144402    1.195589    0.883490
      9          1           0        1.984402    0.147223    0.000000
 ---------------------------------------------------------------------
 Rotational constants (GHZ):     34.9407962      9.1394536      7.9607274
 Leave Link  202 at Tue Nov 26 11:11:55 2019, MaxMem= 1073741824 cpu:       0.0
 (Enter /home/programs/G09_64/g09/l301.exe)
 Standard basis: STO-3G (5D, 7F)
 Ernie: Thresh=  0.10000D-02 Tol=  0.10000D-05 Strict=F.
 There are    21 symmetry adapted basis functions of A   symmetry.
 Integral buffers will be    131072 words long.
 Raffenetti 1 integral format.
 Two-electron integral symmetry is turned on.
    21 basis functions,    63 primitive gaussians,    21 cartesian basis functions
    13 alpha electrons       13 beta electrons
       nuclear repulsion energy        81.0789553529 Hartrees.
 IExCor=    0 DFT=F Ex=HF Corr=None ExCW=0 ScaHFX=  1.000000
 ScaDFX=  1.000000  1.000000  1.000000  1.000000 ScalE2=  1.000000  1.000000
 IRadAn=      0 IRanWt=     -1 IRanGd=            0 ICorTp=0
 NAtoms=    9 NActive=    9 NUniq=    9 SFac= 1.00D+00 NAtFMM=   50 NAOKFM=F Big=F
 Leave Link  301 at Tue Nov 26 11:11:55 2019, MaxMem= 1073741824 cpu:       0.3
 (Enter /home/programs/G09_64/g09/l302.exe)
 NPDir=0 NMtPBC=     1 NCelOv=     1 NCel=       1 NClECP=     1 NCelD=      1
         NCelK=      1 NCelE2=     1 NClLst=     1 CellRange=     0.0.
 One-electron integrals computed using PRISM.
 NBasis=    21 RedAO= T  NBF=    21
 NBsUse=    21 1.00D-06 NBFU=    21
 Leave Link  302 at Tue Nov 26 11:11:55 2019, MaxMem= 1073741824 cpu:       0.9
 (Enter /home/programs/G09_64/g09/l303.exe)
 DipDrv:  MaxL=1.
 Leave Link  303 at Tue Nov 26 11:11:55 2019, MaxMem= 1073741824 cpu:       0.2
 (Enter /home/programs/G09_64/g09/l401.exe)
 Harris functional with IExCor=  205 diagonalized for initial guess.
 ExpMin= 1.69D-01 ExpMax= 1.31D+02 ExpMxC= 1.31D+02 IAcc=1 IRadAn=         1 AccDes= 0.00D+00
 HarFok:  IExCor=  205 AccDes= 0.00D+00 IRadAn=         1 IDoV= 1
 ScaDFX=  1.000000  1.000000  1.000000  1.000000
 FoFCou: FMM=F IPFlag=           0 FMFlag=      100000 FMFlg1=           0
         NFxFlg=           0 DoJE=T BraDBF=F KetDBF=T FulRan=T
         Omega=  0.000000  0.000000  1.000000  0.000000  0.000000 ICntrl=     500 IOpCl=  0
         NMat0=    1 NMatS0=    1 NMatT0=    0 NMatD0=    1 NMtDS0=    0 NMtDT0=    0
         I1Cent=           4 NGrid=           0.
 Petite list used in FoFCou.
 Harris En= -152.346429506560    
 Initial guess orbital symmetries:
       Occupied  (A) (A) (A) (A) (A) (A) (A) (A) (A) (A) (A) (A)
                 (A)
       Virtual   (A) (A) (A) (A) (A) (A) (A) (A)
 The electronic state of the initial guess is 1-A.
 Leave Link  401 at Tue Nov 26 11:11:55 2019, MaxMem= 1073741824 cpu:       1.0
 (Enter /home/programs/G09_64/g09/l502.exe)
 Closed shell SCF:
 Requested convergence on RMS density matrix=1.00D-08 within 128 cycles.
 Requested convergence on MAX density matrix=1.00D-06.
 Requested convergence on             energy=1.00D-06.
 No special actions if energy rises.
 Using DIIS extrapolation, IDIIS=  1040.
 Integral symmetry usage will be decided dynamically.
 Keep R1 ints in memory in canonical form, NReq=846624.
 IEnd=       19814 IEndB=       19814 NGot=  1073741824 MDV=  1073712289
 LenX=  1073712289 LenY=  1073711407
 Symmetry not used in FoFDir.
 MinBra= 0 MaxBra= 1 Meth= 1.
 IRaf=       0 NMat=   1 IRICut=       1 DoRegI=T DoRafI=F ISym2E= 0 JSym2E=0.

 Cycle   1  Pass 1  IDiag  1:
 E= -152.050645492582    
 DIIS: error= 4.48D-02 at cycle   1 NSaved=   1.
 NSaved= 1 IEnMin= 1 EnMin= -152.050645492582     IErMin= 1 ErrMin= 4.48D-02
 ErrMax= 4.48D-02 EMaxC= 1.00D-01 BMatC= 7.43D-02 BMatP= 7.43D-02
 IDIUse=3 WtCom= 5.52D-01 WtEn= 4.48D-01
 Coeff-Com:  0.100D+01
 Coeff-En:   0.100D+01
 Coeff:      0.100D+01
 Gap=     0.930 Goal=   None    Shift=    0.000
 GapD=    0.930 DampG=2.000 DampE=0.500 DampFc=1.0000 IDamp=-1.
 RMSDP=1.79D-02 MaxDP=1.09D-01              OVMax= 0.00D+00

 Cycle   2  Pass 1  IDiag  1:
 E= -152.130751622220     Delta-E=       -0.080106129638 Rises=F Damp=F
 DIIS: error= 8.29D-03 at cycle   2 NSaved=   2.
 NSaved= 2 IEnMin= 2 EnMin= -152.130751622220     IErMin= 2 ErrMin= 8.29D-03
 ErrMax= 8.29D-03 EMaxC= 1.00D-01 BMatC= 1.66D-03 BMatP= 7.43D-02
 IDIUse=3 WtCom= 9.17D-01 WtEn= 8.29D-02
 Coeff-Com:  0.693D-01 0.931D+00
 Coeff-En:   0.000D+00 0.100D+01
 Coeff:      0.635D-01 0.936D+00
 Gap=     0.921 Goal=   None    Shift=    0.000
 RMSDP=2.70D-03 MaxDP=2.29D-02 DE=-8.01D-02 OVMax= 0.00D+00

 Cycle   3  Pass 1  IDiag  1:
 E= -152.132612558277     Delta-E=       -0.001860936057 Rises=F Damp=F
 DIIS: error= 8.12D-04 at cycle   3 NSaved=   3.
 NSaved= 3 IEnMin= 3 EnMin= -152.132612558277     IErMin= 3 ErrMin= 8.12D-04
 ErrMax= 8.12D-04 EMaxC= 1.00D-01 BMatC= 3.48D-05 BMatP= 1.66D-03
 IDIUse=3 WtCom= 9.92D-01 WtEn= 8.12D-03
 Coeff-Com: -0.112D-01 0.123D-01 0.999D+00
 Coeff-En:   0.000D+00 0.000D+00 0.100D+01
 Coeff:     -0.111D-01 0.122D-01 0.999D+00
 Gap=     0.913 Goal=   None    Shift=    0.000
 RMSDP=4.78D-04 MaxDP=2.45D-03 DE=-1.86D-03 OVMax= 0.00D+00

 Cycle   4  Pass 1  IDiag  1:
 E= -152.132671733267     Delta-E=       -0.000059174990 Rises=F Damp=F
 DIIS: error= 2.18D-04 at cycle   4 NSaved=   4.
 NSaved= 4 IEnMin= 4 EnMin= -152.132671733267     IErMin= 4 ErrMin= 2.18D-04
 ErrMax= 2.18D-04 EMaxC= 1.00D-01 BMatC= 1.59D-06 BMatP= 3.48D-05
 IDIUse=3 WtCom= 9.98D-01 WtEn= 2.18D-03
 Coeff-Com:  0.310D-04-0.206D-01-0.124D+00 0.114D+01
 Coeff-En:   0.000D+00 0.000D+00 0.000D+00 0.100D+01
 Coeff:      0.310D-04-0.205D-01-0.124D+00 0.114D+01
 Gap=     0.913 Goal=   None    Shift=    0.000
 RMSDP=1.24D-04 MaxDP=7.84D-04 DE=-5.92D-05 OVMax= 0.00D+00

 Cycle   5  Pass 1  IDiag  1:
 E= -152.132674847009     Delta-E=       -0.000003113742 Rises=F Damp=F
 DIIS: error= 3.53D-05 at cycle   5 NSaved=   5.
 NSaved= 5 IEnMin= 5 EnMin= -152.132674847009     IErMin= 5 ErrMin= 3.53D-05
 ErrMax= 3.53D-05 EMaxC= 1.00D-01 BMatC= 3.35D-08 BMatP= 1.59D-06
 IDIUse=1 WtCom= 1.00D+00 WtEn= 0.00D+00
 Coeff-Com:  0.321D-03-0.907D-03-0.360D-01 0.247D-01 0.101D+01
 Coeff:      0.321D-03-0.907D-03-0.360D-01 0.247D-01 0.101D+01
 Gap=     0.913 Goal=   None    Shift=    0.000
 RMSDP=1.93D-05 MaxDP=1.20D-04 DE=-3.11D-06 OVMax= 0.00D+00

 Cycle   6  Pass 1  IDiag  1:
 E= -152.132674912520     Delta-E=       -0.000000065512 Rises=F Damp=F
 DIIS: error= 3.76D-06 at cycle   6 NSaved=   6.
 NSaved= 6 IEnMin= 6 EnMin= -152.132674912520     IErMin= 6 ErrMin= 3.76D-06
 ErrMax= 3.76D-06 EMaxC= 1.00D-01 BMatC= 6.47D-10 BMatP= 3.35D-08
 IDIUse=1 WtCom= 1.00D+00 WtEn= 0.00D+00
 Coeff-Com: -0.112D-04 0.287D-03 0.262D-02-0.134D-01-0.381D-01 0.105D+01
 Coeff:     -0.112D-04 0.287D-03 0.262D-02-0.134D-01-0.381D-01 0.105D+01
 Gap=     0.913 Goal=   None    Shift=    0.000
 RMSDP=2.17D-06 MaxDP=1.11D-05 DE=-6.55D-08 OVMax= 0.00D+00

 Cycle   7  Pass 1  IDiag  1:
 E= -152.132674913798     Delta-E=       -0.000000001278 Rises=F Damp=F
 DIIS: error= 1.50D-06 at cycle   7 NSaved=   7.
 NSaved= 7 IEnMin= 7 EnMin= -152.132674913798     IErMin= 7 ErrMin= 1.50D-06
 ErrMax= 1.50D-06 EMaxC= 1.00D-01 BMatC= 4.89D-11 BMatP= 6.47D-10
 IDIUse=1 WtCom= 1.00D+00 WtEn= 0.00D+00
 Coeff-Com: -0.237D-04 0.437D-04 0.245D-02-0.680D-03-0.708D-01-0.723D-01
 Coeff-Com:  0.114D+01
 Coeff:     -0.237D-04 0.437D-04 0.245D-02-0.680D-03-0.708D-01-0.723D-01
 Coeff:      0.114D+01
 Gap=     0.913 Goal=   None    Shift=    0.000
 RMSDP=7.08D-07 MaxDP=4.56D-06 DE=-1.28D-09 OVMax= 0.00D+00

 Cycle   8  Pass 1  IDiag  1:
 E= -152.132674913911     Delta-E=       -0.000000000113 Rises=F Damp=F
 DIIS: error= 1.67D-07 at cycle   8 NSaved=   8.
 NSaved= 8 IEnMin= 8 EnMin= -152.132674913911     IErMin= 8 ErrMin= 1.67D-07
 ErrMax= 1.67D-07 EMaxC= 1.00D-01 BMatC= 1.16D-12 BMatP= 4.89D-11
 IDIUse=1 WtCom= 1.00D+00 WtEn= 0.00D+00
 Coeff-Com:  0.868D-05-0.193D-04-0.924D-03 0.425D-03 0.263D-01 0.917D-02
 Coeff-Com: -0.429D+00 0.139D+01
 Coeff:      0.868D-05-0.193D-04-0.924D-03 0.425D-03 0.263D-01 0.917D-02
 Coeff:     -0.429D+00 0.139D+01
 Gap=     0.913 Goal=   None    Shift=    0.000
 RMSDP=1.40D-07 MaxDP=9.05D-07 DE=-1.13D-10 OVMax= 0.00D+00

 Cycle   9  Pass 1  IDiag  1:
 E= -152.132674913914     Delta-E=       -0.000000000003 Rises=F Damp=F
 DIIS: error= 2.51D-08 at cycle   9 NSaved=   9.
 NSaved= 9 IEnMin= 9 EnMin= -152.132674913914     IErMin= 9 ErrMin= 2.51D-08
 ErrMax= 2.51D-08 EMaxC= 1.00D-01 BMatC= 1.39D-14 BMatP= 1.16D-12
 IDIUse=1 WtCom= 1.00D+00 WtEn= 0.00D+00
 Coeff-Com: -0.183D-05 0.400D-05 0.194D-03-0.930D-04-0.552D-02-0.141D-02
 Coeff-Com:  0.915D-01-0.355D+00 0.127D+01
 Coeff:     -0.183D-05 0.400D-05 0.194D-03-0.930D-04-0.552D-02-0.141D-02
 Coeff:      0.915D-01-0.355D+00 0.127D+01
 Gap=     0.913 Goal=   None    Shift=    0.000
 RMSDP=1.54D-08 MaxDP=1.02D-07 DE=-3.13D-12 OVMax= 0.00D+00

 Cycle  10  Pass 1  IDiag  1:
 E= -152.132674913914     Delta-E=        0.000000000000 Rises=F Damp=F
 DIIS: error= 4.26D-09 at cycle  10 NSaved=  10.
 NSaved=10 IEnMin= 9 EnMin= -152.132674913914     IErMin=10 ErrMin= 4.26D-09
 ErrMax= 4.26D-09 EMaxC= 1.00D-01 BMatC= 4.23D-16 BMatP= 1.39D-14
 IDIUse=1 WtCom= 1.00D+00 WtEn= 0.00D+00
 Coeff-Com:  0.300D-06-0.621D-06-0.315D-04 0.149D-04 0.894D-03 0.385D-03
 Coeff-Com: -0.160D-01 0.655D-01-0.349D+00 0.130D+01
 Coeff:      0.300D-06-0.621D-06-0.315D-04 0.149D-04 0.894D-03 0.385D-03
 Coeff:     -0.160D-01 0.655D-01-0.349D+00 0.130D+01
 Gap=     0.913 Goal=   None    Shift=    0.000
 RMSDP=2.86D-09 MaxDP=2.22D-08 DE= 1.42D-13 OVMax= 0.00D+00

 SCF Done:  E(RHF) =  -152.132674914     A.U. after   10 cycles
             Convg  =    0.2856D-08             -V/T =  2.0086
 KE= 1.508419708908D+02 PE=-5.195357572362D+02 EE= 1.354821560786D+02
 Leave Link  502 at Tue Nov 26 11:11:55 2019, MaxMem= 1073741824 cpu:       0.5
 (Enter /home/programs/G09_64/g09/l801.exe)
 Range of M.O.s used for correlation:     1    21
 NBasis=    21 NAE=    13 NBE=    13 NFC=     0 NFV=     0
 NROrb=     21 NOA=    13 NOB=    13 NVA=     8 NVB=     8
 Leave Link  801 at Tue Nov 26 11:11:55 2019, MaxMem= 1073741824 cpu:       0.2
 (Enter /home/programs/G09_64/g09/l1101.exe)
 Using compressed storage, NAtomX=     9.
 Will process  10 centers per pass.
 Leave Link 1101 at Tue Nov 26 11:11:55 2019, MaxMem= 1073741824 cpu:       0.8
 (Enter /home/programs/G09_64/g09/l1102.exe)
 Symmetrizing basis deriv contribution to polar:
 IMax=3 JMax=2 DiffMx= 0.00D+00
 Leave Link 1102 at Tue Nov 26 11:11:55 2019, MaxMem= 1073741824 cpu:       0.3
 (Enter /home/programs/G09_64/g09/l1110.exe)
 Forming Gx(P) for the SCF density, NAtomX=     9.
 Integral derivatives from FoFDir/FoFCou, PRISM(SPDF).
 Do as many integral derivatives as possible in FoFDir.
 G2DrvN: MDV=    1073741648.
 G2DrvN: will do    10 centers at a time, making    1 passes doing MaxLOS=1.
 Calling FoFCou, ICntrl=  3107 FMM=F I1Cent=   0 AccDes= 0.00D+00.
 FoFCou: FMM=F IPFlag=           0 FMFlag=      100000 FMFlg1=           0
         NFxFlg=           0 DoJE=F BraDBF=F KetDBF=F FulRan=T
         Omega=  0.000000  0.000000  1.000000  0.000000  0.000000 ICntrl=    3107 IOpCl=  0
         NMat0=    1 NMatS0=    1 NMatT0=    0 NMatD0=    1 NMtDS0=    0 NMtDT0=    0
         I1Cent=           0 NGrid=           0.
 Symmetry not used in FoFCou.
 FoFDir/FoFCou used for L=0 through L=1.
 End of G2Drv Frequency-dependent properties file   721 does not exist.
 End of G2Drv Frequency-dependent properties file   722 does not exist.
 Leave Link 1110 at Tue Nov 26 11:11:55 2019, MaxMem= 1073741824 cpu:       0.7
 (Enter /home/programs/G09_64/g09/l1002.exe)
 Minotr:  Closed shell wavefunction.
          IDoAtm=111111111
          Direct CPHF calculation.
          Differentiating once with respect to electric field.
                with respect to dipole field.
          Differentiating once with respect to nuclear coordinates.
          Requested convergence is 1.0D-08 RMS, and 1.0D-07 maximum.
          Secondary convergence is 1.0D-12 RMS, and 1.0D-12 maximum.
          NewPWx=T KeepS1=F KeepF1=F KeepIn=T MapXYZ=F SortEE=F KeepMc=T.
          MDV=    1073741730 using IRadAn=       2.
          Keep R1 ints in memory in canonical form, NReq=827449.
 Symmetry not used in FoFDir.
 MinBra= 0 MaxBra= 1 Meth= 1.
 IRaf=       0 NMat=   1 IRICut=       1 DoRegI=T DoRafI=F ISym2E= 0 JSym2E=0.
          Solving linear equations simultaneously, MaxMat=       0.
          There are    30 degrees of freedom in the 1st order CPHF.  IDoFFX=5.
     27 vectors produced by pass  0 Test12= 3.47D-16 3.33D-09 XBig12= 2.63D+00 8.37D-01.
 AX will form    27 AO Fock derivatives at one time.
     27 vectors produced by pass  1 Test12= 3.47D-16 3.33D-09 XBig12= 2.27D-02 5.14D-02.
     27 vectors produced by pass  2 Test12= 3.47D-16 3.33D-09 XBig12= 4.92D-05 3.34D-03.
     21 vectors produced by pass  3 Test12= 3.47D-16 3.33D-09 XBig12= 4.08D-08 6.57D-05.
      2 vectors produced by pass  4 Test12= 3.47D-16 3.33D-09 XBig12= 2.52D-12 9.37D-07.
 Inverted reduced A of dimension   104 with in-core refinement.
 FullF1:  Do perturbations    1 to     3.
 Isotropic polarizability for W=    0.000000       13.44 Bohr**3.
 End of Minotr Frequency-dependent properties file   721 does not exist.
 End of Minotr Frequency-dependent properties file   722 does not exist.
 Leave Link 1002 at Tue Nov 26 11:11:55 2019, MaxMem= 1073741824 cpu:       0.5
 (Enter /home/programs/G09_64/g09/l601.exe)
 Copying SCF densities to generalized density rwf, IOpCl= 0 IROHF=0.

 **********************************************************************

            Population analysis using the SCF density.

 **********************************************************************

 Orbital symmetries:
       Occupied  (A) (A) (A) (A) (A) (A) (A) (A) (A) (A) (A) (A)
                 (A)
       Virtual   (A) (A) (A) (A) (A) (A) (A) (A)
 The electronic state is 1-A.
 Alpha  occ. eigenvalues --  -20.25524 -11.08891 -11.03829  -1.27628  -0.96322
 Alpha  occ. eigenvalues --   -0.79438  -0.61359  -0.60144  -0.51423  -0.48591
 Alpha  occ. eigenvalues --   -0.47201  -0.40798  -0.35326
 Alpha virt. eigenvalues --    0.55967   0.64469   0.64550   0.69836   0.70472
 Alpha virt. eigenvalues --    0.76287   0.77401   0.77795
          Condensed to atoms (all electrons):
              1          2          3          4          5          6
     1  H    0.618650   0.383811  -0.018893  -0.021020  -0.021020   0.000549
     2  C    0.383811   4.732424   0.357628   0.384621   0.384621  -0.018035
     3  C   -0.018893   0.357628   4.718105  -0.020528  -0.020528   0.262508
     4  H   -0.021020   0.384621  -0.020528   0.612644  -0.021554  -0.000520
     5  H   -0.021020   0.384621  -0.020528  -0.021554   0.612644  -0.000520
     6  O    0.000549  -0.018035   0.262508  -0.000520  -0.000520   7.822934
     7  H   -0.001701  -0.022816   0.375659   0.001804  -0.002367  -0.015679
     8  H   -0.001701  -0.022816   0.375659  -0.002367   0.001804  -0.015679
     9  H   -0.000077   0.002606  -0.040551   0.000017   0.000017   0.252219
              7          8          9
     1  H   -0.001701  -0.001701  -0.000077
     2  C   -0.022816  -0.022816   0.002606
     3  C    0.375659   0.375659  -0.040551
     4  H    0.001804  -0.002367   0.000017
     5  H   -0.002367   0.001804   0.000017
     6  O   -0.015679  -0.015679   0.252219
     7  H    0.650093  -0.028128  -0.003374
     8  H   -0.028128   0.650093  -0.003375
     9  H   -0.003374  -0.003375   0.621864
 Mulliken atomic charges:
              1
     1  H    0.061402
     2  C   -0.182044
     3  C    0.010941
     4  H    0.066903
     5  H    0.066903
     6  O   -0.287777
     7  H    0.046509
     8  H    0.046509
     9  H    0.170655
 Sum of Mulliken atomic charges =   0.00000
 Mulliken charges with hydrogens summed into heavy atoms:
              1
     2  C    0.013164
     3  C    0.103958
     6  O   -0.117123
 Sum of Mulliken charges with hydrogens summed into heavy atoms =   0.00000
 APT atomic charges:
              1
     1  H    0.001884
     2  C   -0.028177
     3  C    0.344844
     4  H    0.008478
     5  H    0.008478
     6  O   -0.291762
     7  H   -0.062824
     8  H   -0.062824
     9  H    0.081904
 Sum of APT charges=   0.00000
 APT Atomic charges with hydrogens summed into heavy atoms:
              1
     1  H    0.000000
     2  C   -0.009337
     3  C    0.219195
     4  H    0.000000
     5  H    0.000000
     6  O   -0.209859
     7  H    0.000000
     8  H    0.000000
     9  H    0.000000
 Sum of APT charges=   0.00000
 Electronic spatial extent (au):  <R**2>=            193.8973
 Charge=              0.0000 electrons
 Dipole moment (field-independent basis, Debye):
    X=              0.0824    Y=              1.4341    Z=              0.0000  Tot=              1.4365
 Quadrupole moment (field-independent basis, Debye-Ang):
   XX=            -16.6669   YY=            -18.9589   ZZ=            -18.5044
   XY=              1.7427   XZ=              0.0000   YZ=              0.0000
 Traceless Quadrupole moment (field-independent basis, Debye-Ang):
   XX=              1.3766   YY=             -0.9155   ZZ=             -0.4610
   XY=              1.7427   XZ=              0.0000   YZ=              0.0000
 Octapole moment (field-independent basis, Debye-Ang**2):
  XXX=             12.8787  YYY=             -1.8181  ZZZ=              0.0000  XYY=              1.4585
  XXY=              1.9441  XXZ=              0.0000  XZZ=              1.9742  YZZ=             -0.7629
  YYZ=              0.0000  XYZ=              0.0000
 Hexadecapole moment (field-independent basis, Debye-Ang**3):
 XXXX=           -132.0647 YYYY=            -49.5392 ZZZZ=            -27.1957 XXXY=             -1.1698
 XXXZ=              0.0000 YYYX=             -2.1085 YYYZ=              0.0000 ZZZX=              0.0000
 ZZZY=              0.0000 XXYY=            -32.8090 XXZZ=            -29.5002 YYZZ=            -11.6242
 XXYZ=              0.0000 YYXZ=              0.0000 ZZXY=              0.1603
 N-N= 8.107895535293D+01 E-N=-5.195357572451D+02  KE= 1.508419708908D+02
  Exact polarizability:  17.006   0.295  12.377   0.000   0.000  10.939
 Approx polarizability:  11.692  -0.135  10.803   0.000   0.000   8.988
 No NMR shielding tensors so no spin-rotation constants.
 Leave Link  601 at Tue Nov 26 11:11:55 2019, MaxMem= 1073741824 cpu:       0.9
 (Enter /home/programs/G09_64/g09/l701.exe)
 Compute integral second derivatives.
 ... and contract with generalized density number  0.
 Leave Link  701 at Tue Nov 26 11:11:56 2019, MaxMem= 1073741824 cpu:       0.9
 (Enter /home/programs/G09_64/g09/l702.exe)
 L702 exits ... SP integral derivatives will be done elsewhere.
 Leave Link  702 at Tue Nov 26 11:11:56 2019, MaxMem= 1073741824 cpu:       0.2
 (Enter /home/programs/G09_64/g09/l703.exe)
 Compute integral second derivatives, UseDBF=F ICtDFT=           0.
 Integral derivatives from FoFDir, PRISM(SPDF).
 Calling FoFJK, ICntrl=    100127 FMM=F ISym2X=0 I1Cent= 0 IOpClX= 0 NMat=1 NMatS=1 NMatT=0.
 FoFCou: FMM=F IPFlag=           0 FMFlag=      100000 FMFlg1=         800
         NFxFlg=           0 DoJE=F BraDBF=F KetDBF=F FulRan=T
         Omega=  0.000000  0.000000  1.000000  0.000000  0.000000 ICntrl=  100127 IOpCl=  0
         NMat0=    1 NMatS0=    1 NMatT0=    0 NMatD0=    1 NMtDS0=    0 NMtDT0=    0
         I1Cent=           0 NGrid=           0.
 Symmetry not used in FoFCou.
 Leave Link  703 at Tue Nov 26 11:11:56 2019, MaxMem= 1073741824 cpu:       1.7
 (Enter /home/programs/G09_64/g09/l716.exe)
 Dipole        = 3.24307540D-02 5.64216900D-01-1.45507237D-07
 Polarizability= 1.70062832D+01 2.95027265D-01 1.23774578D+01
                 3.15899700D-06-1.90908272D-06 1.09394321D+01
 HyperPolar    = 4.76371552D+00 1.04380886D+01-3.42406793D+00
                 4.53725541D+00-5.29117063D-06 1.44431473D-05
                -1.86604663D-05-1.83604467D+00 2.38349368D-01
                 1.87545101D-05
 Full mass-weighted force constant matrix:
 Low frequencies ---   -1.8877   -1.1331   -1.0983    0.0003    0.0008    0.0012
 Low frequencies ---  224.6901  355.7822  438.5192
 Harmonic frequencies (cm**-1), IR intensities (KM/Mole), Raman scattering
 activities (A**4/AMU), depolarization ratios for plane and unpolarized
 incident light, reduced masses (AMU), force constants (mDyne/A),
 and normal coordinates:
                     1                      2                      3
                     A                      A                      A
 Frequencies --   224.6901               355.7822               438.5192
 Red. masses --     1.1309                 1.0849                 2.8963
 Frc consts  --     0.0336                 0.0809                 0.3282
 IR Inten    --     2.3359                79.1920                 6.1440
  Atom  AN      X      Y      Z        X      Y      Z        X      Y      Z
     1   1     0.00   0.00   0.58     0.00   0.00  -0.09    -0.06  -0.40   0.00
     2   6     0.00   0.00   0.00     0.00   0.00  -0.03     0.21  -0.06   0.00
     3   6     0.00   0.00  -0.07     0.00   0.00   0.04     0.02   0.20   0.00
     4   1     0.29  -0.39  -0.25    -0.06   0.00  -0.04     0.48  -0.11  -0.01
     5   1    -0.29   0.39  -0.25     0.06   0.00  -0.04     0.48  -0.11   0.01
     6   8     0.00   0.00   0.07     0.00   0.00   0.06    -0.24  -0.06   0.00
     7   1     0.01  -0.09  -0.13     0.01   0.01   0.05     0.07   0.18  -0.01
     8   1    -0.01   0.09  -0.13    -0.01  -0.01   0.05     0.07   0.18   0.01
     9   1     0.00   0.00  -0.05     0.00   0.00  -0.99    -0.04  -0.36   0.00
                     4                      5                      6
                     A                      A                      A
 Frequencies --   951.9723              1076.6349              1227.4649
 Red. masses --     1.0988                 1.9947                 1.8318
 Frc consts  --     0.5867                 1.3623                 1.6261
 IR Inten    --     0.0000                 0.2357                 7.2104
  Atom  AN      X      Y      Z        X      Y      Z        X      Y      Z
     1   1     0.00   0.00  -0.18     0.64   0.51   0.00    -0.29  -0.25   0.00
     2   6     0.00   0.00   0.04     0.21   0.01   0.00     0.06   0.17   0.00
     3   6     0.00   0.00   0.07    -0.04  -0.15   0.00    -0.15  -0.11   0.00
     4   1    -0.36  -0.26  -0.17    -0.12   0.12   0.04     0.51   0.09  -0.03
     5   1     0.36   0.26  -0.17    -0.12   0.12  -0.04     0.51   0.09   0.03
     6   8     0.00   0.00  -0.03    -0.11   0.07   0.00     0.05  -0.05   0.00
     7   1    -0.24  -0.39  -0.22    -0.23  -0.14   0.00    -0.06  -0.13   0.00
     8   1     0.24   0.39  -0.22    -0.23  -0.14   0.00    -0.06  -0.13   0.00
     9   1     0.00   0.00   0.04    -0.15   0.12   0.00    -0.23   0.37   0.00
                     7                      8                      9
                     A                      A                      A
 Frequencies --  1345.3942              1351.0156              1510.9933
 Red. masses --     1.3842                 1.9528                 1.1497
 Frc consts  --     1.4762                 2.1000                 1.5466
 IR Inten    --    10.8238                 1.5519                 0.2250
  Atom  AN      X      Y      Z        X      Y      Z        X      Y      Z
     1   1     0.00   0.00   0.17    -0.20  -0.16   0.00     0.00   0.00  -0.12
     2   6     0.00   0.00  -0.08    -0.06   0.01   0.00     0.00   0.00   0.10
     3   6     0.00   0.00   0.15     0.15  -0.14   0.00     0.00   0.00  -0.05
     4   1     0.27   0.20   0.08     0.08  -0.06  -0.03    -0.24  -0.20  -0.06
     5   1    -0.27  -0.20   0.08     0.08  -0.06   0.03     0.24   0.20  -0.06
     6   8     0.00   0.00  -0.05    -0.12   0.12   0.00     0.00   0.00  -0.02
     7   1     0.36  -0.45  -0.15     0.56  -0.17   0.00     0.62   0.04   0.01
     8   1    -0.36   0.45  -0.15     0.56  -0.17   0.00    -0.62  -0.04   0.01
     9   1     0.00   0.00  -0.01    -0.26   0.29   0.00     0.00   0.00  -0.02
                    10                     11                     12
                     A                      A                      A
 Frequencies --  1574.7216              1709.0532              1790.3276
 Red. masses --     1.4157                 1.2330                 1.4626
 Frc consts  --     2.0684                 2.1219                 2.7621
 IR Inten    --    41.7737                 2.5278                 8.7298
  Atom  AN      X      Y      Z        X      Y      Z        X      Y      Z
     1   1     0.21   0.14   0.00     0.32   0.45   0.00     0.13   0.25   0.00
     2   6     0.04  -0.07   0.00    -0.11  -0.07   0.00    -0.09  -0.02   0.00
     3   6    -0.10   0.10   0.00    -0.06  -0.01   0.00     0.17   0.02   0.00
     4   1    -0.16   0.04   0.06     0.46   0.13   0.18     0.24  -0.10  -0.03
     5   1    -0.16   0.04  -0.06     0.46   0.13  -0.18     0.24  -0.10   0.03
     6   8     0.03  -0.08   0.00     0.01   0.02   0.00    -0.02  -0.05   0.00
     7   1     0.41   0.10   0.02     0.19   0.00   0.02    -0.39   0.15   0.05
     8   1     0.41   0.10  -0.02     0.19   0.00  -0.02    -0.39   0.15  -0.05
     9   1    -0.40   0.58   0.00     0.18  -0.24   0.00    -0.38   0.50   0.00
                    13                     14                     15
                     A                      A                      A
 Frequencies --  1819.8966              1826.4293              1850.9279
 Red. masses --     1.0465                 1.0849                 1.1037
 Frc consts  --     2.0422                 2.1323                 2.2279
 IR Inten    --     1.0343                 3.5185                 1.1886
  Atom  AN      X      Y      Z        X      Y      Z        X      Y      Z
     1   1     0.00   0.00   0.73    -0.13  -0.20   0.00     0.11   0.17   0.00
     2   6     0.00   0.00  -0.06     0.00  -0.05   0.00    -0.02   0.02   0.00
     3   6     0.00   0.00  -0.01     0.05   0.04   0.00    -0.01   0.09   0.00
     4   1    -0.44   0.20   0.05    -0.03   0.45   0.36     0.04  -0.26  -0.19
     5   1     0.44  -0.20   0.05    -0.03   0.45  -0.36     0.04  -0.26   0.19
     6   8     0.00   0.00   0.00    -0.01  -0.01   0.00     0.01   0.00   0.00
     7   1     0.01   0.02   0.00    -0.11  -0.25  -0.22     0.01  -0.46  -0.40
     8   1    -0.01  -0.02   0.00    -0.11  -0.25   0.22     0.01  -0.46   0.40
     9   1     0.00   0.00   0.00    -0.07   0.09   0.00    -0.01   0.02   0.00
                    16                     17                     18
                     A                      A                      A
 Frequencies --  3539.6162              3574.1109              3650.7754
 Red. masses --     1.0638                 1.0394                 1.1101
 Frc consts  --     7.8526                 7.8226                 8.7173
 IR Inten    --     9.6531                 0.6060                14.3468
  Atom  AN      X      Y      Z        X      Y      Z        X      Y      Z
     1   1    -0.02   0.02   0.00    -0.45   0.38   0.00     0.00   0.00   0.00
     2   6     0.00   0.00   0.00     0.05   0.03   0.00     0.00   0.00  -0.01
     3   6     0.01   0.07   0.00     0.00   0.00   0.00     0.00   0.00   0.10
     4   1     0.00  -0.01   0.01    -0.03  -0.33   0.46     0.00  -0.02   0.03
     5   1     0.00  -0.01  -0.01    -0.03  -0.33  -0.46     0.00   0.02   0.03
     6   8     0.00   0.00   0.00     0.00   0.00   0.00     0.00   0.00   0.00
     7   1    -0.03  -0.41   0.57     0.00   0.01  -0.02     0.03   0.41  -0.57
     8   1    -0.03  -0.41  -0.57     0.00   0.01   0.02    -0.03  -0.41  -0.57
     9   1     0.01   0.01   0.00     0.00   0.00   0.00     0.00   0.00   0.00
                    19                     20                     21
                     A                      A                      A
 Frequencies --  3758.7517              3761.1119              4227.5129
 Red. masses --     1.1094                 1.1094                 1.0679
 Frc consts  --     9.2350                 9.2461                11.2446
 IR Inten    --     0.8173                 0.9098                26.8728
  Atom  AN      X      Y      Z        X      Y      Z        X      Y      Z
     1   1     0.61  -0.52   0.00     0.00   0.00   0.00     0.00   0.00   0.00
     2   6    -0.05   0.08   0.00     0.00   0.00   0.10     0.00   0.00   0.00
     3   6     0.00   0.00   0.00     0.00   0.00   0.00     0.00   0.01   0.00
     4   1    -0.03  -0.24   0.34     0.04   0.41  -0.57     0.00   0.00   0.00
     5   1    -0.03  -0.24  -0.34    -0.04  -0.41  -0.57     0.00   0.00   0.00
     6   8     0.00   0.00   0.00     0.00   0.00   0.00     0.05   0.03   0.00
     7   1     0.00  -0.01   0.01     0.01   0.02  -0.03     0.00   0.00   0.01
     8   1     0.00  -0.01  -0.01    -0.01  -0.02  -0.03     0.00   0.00  -0.01
     9   1     0.00   0.00   0.00     0.00   0.00   0.00    -0.83  -0.55   0.00

 -------------------
 - Thermochemistry -
 -------------------
 Temperature   298.150 Kelvin.  Pressure   1.00000 Atm.
 Atom     1 has atomic number  1 and mass   1.00783
 Atom     2 has atomic number  6 and mass  12.00000
 Atom     3 has atomic number  6 and mass  12.00000
 Atom     4 has atomic number  1 and mass   1.00783
 Atom     5 has atomic number  1 and mass   1.00783
 Atom     6 has atomic number  8 and mass  15.99491
 Atom     7 has atomic number  1 and mass   1.00783
 Atom     8 has atomic number  1 and mass   1.00783
 Atom     9 has atomic number  1 and mass   1.00783
 Molecular mass:    46.04186 amu.
 Principal axes and moments of inertia in atomic units:
                           1         2         3
     Eigenvalues --    51.65140 197.46708 226.70557
           X            0.99903   0.04396   0.00000
           Y           -0.04396   0.99903   0.00000
           Z            0.00000   0.00000   1.00000
 This molecule is an asymmetric top.
 Rotational symmetry number  1.
 Rotational temperatures (Kelvin)      1.67689     0.43862     0.38205
 Rotational constants (GHZ):          34.94080     9.13945     7.96073
 Zero-point vibrational energy     248618.1 (Joules/Mol)
                                   59.42115 (Kcal/Mol)
 Warning -- explicit consideration of   3 degrees of freedom as
           vibrations may cause significant error
 Vibrational temperatures:    323.28   511.89   630.93  1369.67  1549.04
          (Kelvin)           1766.05  1935.72  1943.81  2173.98  2265.67
                             2458.94  2575.88  2618.42  2627.82  2663.07
                             5092.71  5142.34  5252.64  5408.00  5411.39
                             6082.44
 
 Zero-point correction=                           0.094694 (Hartree/Particle)
 Thermal correction to Energy=                    0.098798
 Thermal correction to Enthalpy=                  0.099743
 Thermal correction to Gibbs Free Energy=         0.069352
 Sum of electronic and zero-point Energies=           -152.037981
 Sum of electronic and thermal Energies=              -152.033877
 Sum of electronic and thermal Enthalpies=            -152.032932
 Sum of electronic and thermal Free Energies=         -152.063323
 
                     E (Thermal)             CV                S
                      KCal/Mol        Cal/Mol-Kelvin    Cal/Mol-Kelvin
 Total                   61.997             12.147             63.962
 Electronic               0.000              0.000              0.000
 Translational            0.889              2.981             37.406
 Rotational               0.889              2.981             22.363
 Vibrational             60.219              6.185              4.193
 Vibration     1          0.649              1.803              1.921
 Vibration     2          0.731              1.563              1.140
 Vibration     3          0.799              1.386              0.831
                       Q            Log10(Q)             Ln(Q)
 Total Bot       0.125969D-31        -31.899737        -73.451858
 Total V=0       0.453127D+12         11.656220         26.839437
 Vib (Bot)       0.595954D-43        -43.224787        -99.528750
 Vib (Bot)    1  0.878594D+00         -0.056212         -0.129432
 Vib (Bot)    2  0.516618D+00         -0.286831         -0.660452
 Vib (Bot)    3  0.394680D+00         -0.403755         -0.929680
 Vib (V=0)       0.214373D+01          0.331169          0.762545
 Vib (V=0)    1  0.151090D+01          0.179237          0.412708
 Vib (V=0)    2  0.121895D+01          0.085987          0.197993
 Vib (V=0)    3  0.113700D+01          0.055761          0.128395
 Electronic      0.100000D+01          0.000000          0.000000
 Translational   0.122796D+08          7.089185         16.323451
 Rotational      0.172134D+05          4.235866          9.753442
 
                                                      --Frequency calculation--
                                                             IR Spectrum
 
      4            33  3 33                                                 1111 1   1 1   11   1   1                                
      2            77  6 55                                                 8887 7   5 5   33   2   0   9              4  3   2      
      2            65  5 74                                                 5229 0   7 1   54   2   7   5              3  5   2      
      8            19  1 40                                                 1600 9   5 1   15   7   7   2              9  6   5      
 
      X            XX  X XX                                                 XXXX X   X X   XX   X   X                  X  X   X      
      X                X  X                                                    X     X      X   X                      X  X          
      X                X                                                             X      X                             X          
      X                X                                                             X                                    X          
      X                                                                              X                                    X          
      X                                                                              X                                    X          
      X                                                                              X                                    X          
                                                                                     X                                    X          
                                                                                     X                                    X          
                                                                                     X                                    X          
                                                                                     X                                    X          
                                                                                                                          X          
                                                                                                                          X          
                                                                                                                          X          
                                                                                                                          X          
                                                                                                                          X          
                                                                                                                          X          
                                                                                                                          X          
                                                                                                                          X          
                                                                                                                          X          
 
 ***** Axes restored to original set *****
 -------------------------------------------------------------------
 Center     Atomic                   Forces (Hartrees/Bohr)
 Number     Number              X              Y              Z
 -------------------------------------------------------------------
      1        1          -0.000000076   -0.000000021   -0.000002478
      2        6           0.000001786   -0.000000002   -0.000000221
      3        6           0.000003427    0.000000190   -0.000000716
      4        1          -0.000001637    0.000002799    0.000001077
      5        1          -0.000001659   -0.000002799    0.000001018
      6        8          -0.000000424   -0.000000143   -0.000000726
      7        1          -0.000001008    0.000001964    0.000001059
      8        1          -0.000001001   -0.000001988    0.000000819
      9        1           0.000000593    0.000000000    0.000000167
 -------------------------------------------------------------------
 Cartesian Forces:  Max     0.000003427 RMS     0.000001462
 -----------------------------------------------------------------------------------------------
                       Internal Coordinate Forces (Hartree/Bohr or radian)
  Cent   Atom   N1       Length/X         N2         Alpha/Y        N3         Beta/Z          J
 -----------------------------------------------------------------------------------------------
      1  H 
      2  C        1   0.000002(     1)
      3  C        2   0.000002(     2)      1   0.000000(     9)
      4  H        2   0.000003(     3)      1   0.000000(    10)      3   0.000000(    16)     0
      5  H        2   0.000003(     4)      1   0.000000(    11)      3   0.000000(    17)     0
      6  O        3  -0.000001(     5)      2   0.000000(    12)      1   0.000000(    18)     0
      7  H        3  -0.000002(     6)      2   0.000001(    13)      6   0.000000(    19)     0
      8  H        3  -0.000002(     7)      2   0.000000(    14)      6   0.000000(    20)     0
      9  H        6   0.000001(     8)      3   0.000000(    15)      2   0.000000(    21)     0
 -----------------------------------------------------------------------------------------------
 Internal  Forces:  Max     0.000003417 RMS     0.000001467
 Force constants in Cartesian coordinates: 
                1             2             3             4             5 
      1  0.716370D-01
      2  0.000000D+00  0.687466D-01
      3 -0.159437D-02  0.000000D+00  0.481691D+00
      4 -0.747550D-01  0.000000D+00  0.433779D-02  0.736761D+00
      5  0.000000D+00 -0.797401D-01  0.000000D+00  0.000000D+00  0.863689D+00
      6  0.290692D-02  0.000000D+00 -0.463944D+00 -0.484471D-01  0.000000D+00
      7  0.615666D-02  0.000000D+00  0.476432D-02 -0.301570D+00  0.000000D+00
      8  0.000000D+00 -0.892005D-03  0.000000D+00  0.000000D+00 -0.126558D+00
      9 -0.451308D-01  0.000000D+00 -0.888069D-02 -0.559866D-01  0.000000D+00
     10  0.138056D-02 -0.300106D-02 -0.325913D-02 -0.165290D+00  0.151740D+00
     11 -0.387207D-02  0.524934D-02  0.636576D-02  0.150400D+00 -0.336807D+00
     12  0.224384D-01 -0.391478D-01 -0.583375D-02  0.622041D-01 -0.100915D+00
     13  0.138055D-02  0.300107D-02 -0.325913D-02 -0.165290D+00 -0.151739D+00
     14  0.387208D-02  0.524936D-02 -0.636577D-02 -0.150400D+00 -0.336807D+00
     15  0.224383D-01  0.391478D-01 -0.583374D-02  0.622041D-01  0.100915D+00
     16 -0.977405D-02  0.000000D+00 -0.179413D-02  0.421862D-02  0.000000D+00
     17  0.000000D+00  0.748299D-03  0.000000D+00  0.000000D+00  0.378833D-02
     18 -0.172397D-03  0.000000D+00  0.135330D-02 -0.984738D-02  0.000000D+00
     19  0.198190D-02 -0.489556D-03  0.557524D-03 -0.178757D-01  0.360522D-01
     20 -0.163574D-04  0.169902D-03  0.224548D-03 -0.515039D-02  0.574704D-02
     21  0.986008D-03  0.155759D-03  0.918423D-03 -0.873637D-02  0.151849D-01
     22  0.198188D-02  0.489558D-03  0.557518D-03 -0.178756D-01 -0.360522D-01
     23  0.163565D-04  0.169899D-03 -0.224550D-03  0.515040D-02  0.574707D-02
     24  0.986014D-03 -0.155753D-03  0.918415D-03 -0.873632D-02 -0.151849D-01
     25  0.105674D-04  0.000000D+00 -0.310394D-03  0.167722D-02  0.000000D+00
     26  0.000000D+00  0.298685D-03  0.000000D+00  0.000000D+00  0.940054D-03
     27 -0.285802D-02  0.000000D+00 -0.388839D-03  0.300769D-02  0.000000D+00
                6             7             8             9            10 
      6  0.852404D+00
      7 -0.523410D-01  0.782345D+00
      8  0.000000D+00  0.000000D+00  0.833681D+00
      9 -0.133096D+00 -0.421611D-01  0.000000D+00  0.777378D+00
     10  0.627374D-01 -0.185170D-01  0.366679D-01  0.160428D-01  0.168661D+00
     11 -0.102208D+00 -0.469779D-02  0.580407D-02  0.253588D-02 -0.161283D+00
     12 -0.120136D+00 -0.930981D-02  0.167608D-01  0.679946D-02 -0.640305D-01
     13  0.627375D-01 -0.185170D-01 -0.366680D-01  0.160427D-01  0.139422D-01
     14  0.102208D+00  0.469776D-02  0.580406D-02 -0.253588D-02 -0.211844D-01
     15 -0.120136D+00 -0.930982D-02 -0.167608D-01  0.679946D-02 -0.992687D-02
     16 -0.532887D-01 -0.128120D+00  0.000000D+00 -0.359981D-01  0.294087D-02
     17  0.000000D+00  0.000000D+00 -0.738136D-01  0.000000D+00 -0.126101D-02
     18 -0.179497D-01  0.699999D-01  0.000000D+00 -0.402098D+00  0.136311D-02
     19  0.131773D-01 -0.160690D+00  0.136739D+00  0.576587D-01 -0.645300D-02
     20  0.120187D-02  0.134094D+00 -0.320412D+00 -0.898958D-01 -0.150146D-02
     21  0.738563D-02  0.559770D-01 -0.957027D-01 -0.110266D+00 -0.397223D-02
     22  0.131772D-01 -0.160690D+00 -0.136739D+00  0.576580D-01  0.285358D-02
     23 -0.120186D-02 -0.134094D+00 -0.320414D+00  0.898950D-01 -0.131767D-03
     24  0.738559D-02  0.559763D-01  0.957019D-01 -0.110265D+00  0.437166D-03
     25 -0.659489D-03 -0.396219D-03  0.000000D+00  0.318745D-01  0.481955D-03
     26  0.000000D+00  0.000000D+00 -0.319945D-02  0.000000D+00 -0.448055D-04
     27 -0.119130D-01 -0.735958D-01  0.000000D+00 -0.263717D-01  0.608227D-03
               11            12            13            14            15 
     11  0.343316D+00
     12  0.109343D+00  0.112262D+00
     13  0.211845D-01 -0.992687D-02  0.168661D+00
     14 -0.194798D-01  0.151655D-01  0.161283D+00  0.343316D+00
     15 -0.151655D-01  0.645619D-02 -0.640305D-01 -0.109343D+00  0.112262D+00
     16 -0.341536D-04  0.109599D-02  0.294089D-02  0.341536D-04  0.109599D-02
     17  0.443200D-04 -0.355653D-03  0.126101D-02  0.443195D-04  0.355650D-03
     18 -0.121183D-03  0.117636D-02  0.136313D-02  0.121185D-03  0.117637D-02
     19 -0.163552D-02 -0.356480D-02  0.285357D-02 -0.836733D-04  0.782154D-03
     20  0.884442D-03 -0.704934D-03  0.131773D-03  0.960737D-03  0.159528D-03
     21 -0.103484D-02 -0.953690D-03  0.437159D-03 -0.313875D-03  0.322687D-04
     22  0.836692D-04  0.782160D-03 -0.645300D-02  0.163551D-02 -0.356481D-02
     23  0.960743D-03 -0.159527D-03  0.150147D-02  0.884441D-03  0.704936D-03
     24  0.313879D-03  0.322741D-04 -0.397222D-02  0.103484D-02 -0.953693D-03
     25 -0.146120D-03  0.311356D-03  0.481958D-03  0.146121D-03  0.311357D-03
     26  0.277397D-04  0.138786D-04  0.448038D-04  0.277404D-04 -0.138800D-04
     27 -0.283194D-04  0.196953D-03  0.608232D-03  0.283191D-04  0.196954D-03
               16            17            18            19            20 
     16  0.720738D+00
     17  0.000000D+00  0.548376D-01
     18  0.122424D+00  0.000000D+00  0.592500D+00
     19  0.365316D-02  0.460900D-03  0.122543D-02  0.161577D+00
     20 -0.102281D-02  0.908578D-02 -0.274016D-02 -0.147489D+00  0.324537D+00
     21  0.237292D-01 -0.354608D-01 -0.358835D-01 -0.618409D-01  0.104434D+00
     22  0.365317D-02 -0.460930D-03  0.122546D-02  0.133229D-01  0.218205D-01
     23  0.102269D-02  0.908564D-02  0.274032D-02 -0.218204D-01 -0.216174D-01
     24  0.237292D-01  0.354611D-01 -0.358835D-01 -0.778595D-02 -0.130581D-01
     25 -0.600250D+00  0.000000D+00 -0.187581D+00  0.163032D-02 -0.866390D-03
     26  0.000000D+00 -0.382062D-02  0.000000D+00 -0.173350D-02  0.645283D-03
     27 -0.809930D-01  0.000000D+00 -0.104391D+00 -0.209480D-03  0.379389D-03
               21            22            23            24            25 
     21  0.125886D+00
     22 -0.778589D-02  0.161577D+00
     23  0.130579D-01  0.147489D+00  0.324538D+00
     24  0.900941D-02 -0.618401D-01 -0.104433D+00  0.125885D+00
     25  0.120600D-02  0.163032D-02  0.866386D-03  0.120600D-02  0.594734D+00
     26 -0.319928D-03  0.173350D-02  0.645286D-03  0.319925D-03  0.000000D+00
     27  0.387119D-02 -0.209478D-03 -0.379408D-03  0.387118D-02  0.153642D+00
               26            27 
     26  0.443529D-02
     27  0.000000D+00  0.134928D+00
 Force constants in internal coordinates: 
                1             2             3             4             5 
      1  0.481691D+00
      2 -0.144489D-02  0.404400D+00
      3 -0.487952D-02 -0.733613D-03  0.482723D+00
      4 -0.487952D-02 -0.733599D-03 -0.475734D-02  0.482723D+00
      5 -0.102896D-02  0.141006D-01 -0.598522D-03 -0.598525D-03  0.517799D+00
      6  0.229954D-03 -0.483777D-03 -0.934208D-03  0.103714D-03  0.136016D-01
      7  0.229954D-03 -0.483783D-03  0.103714D-03 -0.934208D-03  0.136017D-01
      8  0.404168D-03 -0.151397D-02 -0.313422D-03 -0.313424D-03 -0.248241D-01
      9  0.127010D-01  0.401456D-03 -0.572376D-02 -0.572377D-02  0.107167D-01
     10  0.160396D-01 -0.157947D-01  0.175604D-02 -0.836622D-02  0.329694D-02
     11  0.160396D-01 -0.157947D-01 -0.836622D-02  0.175601D-02  0.329696D-02
     12  0.508222D-02  0.371612D-01 -0.341537D-02 -0.341539D-02 -0.140417D-01
     13 -0.201610D-02  0.364211D-01  0.267171D-02 -0.224910D-02 -0.330636D-01
     14 -0.201608D-02  0.364211D-01 -0.224911D-02  0.267171D-02 -0.330637D-01
     15  0.543356D-03  0.629883D-02 -0.333202D-03 -0.333204D-03  0.681092D-01
     16  0.941293D-03  0.263552D-01 -0.340564D-02 -0.125954D-01 -0.296095D-02
     17 -0.941294D-03 -0.263552D-01  0.125954D-01  0.340562D-02  0.296097D-02
     18  0.000000D+00  0.000000D+00  0.401864D-03 -0.401859D-03  0.000000D+00
     19  0.889251D-03  0.169623D-02  0.394851D-03 -0.150633D-02  0.494922D-01
     20 -0.889245D-03 -0.169628D-02  0.150634D-02 -0.394856D-03 -0.494925D-01
     21  0.000000D+00  0.000000D+00  0.887363D-04 -0.887374D-04  0.000000D+00
                6             7             8             9            10 
      6  0.456145D+00
      7 -0.342456D-02  0.456145D+00
      8  0.552575D-03  0.552575D-03  0.641124D+00
      9 -0.147879D-02 -0.147877D-02  0.310475D-02  0.311234D+00
     10 -0.112564D-02  0.441755D-03  0.983398D-03  0.558122D-01  0.290089D+00
     11  0.441755D-03 -0.112564D-02  0.983402D-03  0.558122D-01  0.442763D-01
     12 -0.755338D-02 -0.755339D-02  0.161605D-01  0.630692D-01  0.104700D-01
     13 -0.338451D-02 -0.121770D-01  0.439490D-02 -0.219641D-01 -0.180713D-01
     14 -0.121770D-01 -0.338451D-02  0.439489D-02 -0.219641D-01  0.474199D-02
     15 -0.368802D-02 -0.368803D-02  0.207922D-01  0.120994D-01  0.658976D-03
     16  0.201789D-02 -0.256612D-02 -0.898548D-03 -0.824355D-01 -0.361881D-02
     17  0.256610D-02 -0.201788D-02  0.898554D-03  0.824354D-01 -0.774552D-01
     18 -0.252210D-03  0.252194D-03  0.000000D+00  0.000000D+00 -0.235620D-02
     19 -0.294096D-02 -0.129952D-01 -0.333630D-02  0.151258D-02 -0.304273D-02
     20  0.129952D-01  0.294094D-02  0.333629D-02 -0.151260D-02 -0.226852D-02
     21 -0.226082D-02  0.226082D-02  0.000000D+00  0.000000D+00 -0.719175D-05
               11            12            13            14            15 
     11  0.290089D+00
     12  0.104700D-01  0.425368D+00
     13  0.474195D-02  0.822085D-01  0.327761D+00
     14 -0.180713D-01  0.822087D-01  0.572145D-01  0.327761D+00
     15  0.658980D-03  0.582261D-01  0.504314D-02  0.504312D-02  0.310493D+00
     16  0.774553D-01 -0.137850D-01  0.298825D-01 -0.889241D-02 -0.144129D-02
     17  0.361882D-02  0.137851D-01  0.889238D-02 -0.298825D-01  0.144130D-02
     18  0.235621D-02  0.000000D+00 -0.277157D-03  0.277072D-03  0.000000D+00
     19  0.226853D-02 -0.893337D-01 -0.117263D-01  0.721913D-01 -0.952535D-02
     20  0.304273D-02  0.893338D-01 -0.721912D-01  0.117262D-01  0.952534D-02
     21  0.718783D-05  0.000000D+00 -0.528929D-02  0.528930D-02  0.000000D+00
               16            17            18            19            20 
     16  0.273871D+00
     17 -0.128713D+00  0.273871D+00
     18 -0.821340D-02 -0.821337D-02  0.186230D-01
     19 -0.320773D-02  0.397965D-03  0.638410D-02  0.304586D+00
     20  0.397940D-03 -0.320771D-02  0.638412D-02 -0.130302D+00  0.304587D+00
     21  0.851486D-04  0.851457D-04 -0.112049D-02  0.290122D-03  0.290131D-03
               21 
     21  0.146501D-01
 Leave Link  716 at Tue Nov 26 11:11:56 2019, MaxMem= 1073741824 cpu:       0.3
 (Enter /home/programs/G09_64/g09/l103.exe)

 GradGradGradGradGradGradGradGradGradGradGradGradGradGradGradGradGradGrad
 Berny optimization.
 Search for a local minimum.
 Step number   1 out of a maximum of    2
 All quantities printed in internal units (Hartrees-Bohrs-Radians)
 Second derivative matrix not updated -- analytic derivatives used.
 ITU=  0
     Eigenvalues ---    0.01403   0.01653   0.09758   0.12433   0.15135
     Eigenvalues ---    0.19307   0.27025   0.27308   0.34209   0.36204
     Eigenvalues ---    0.39178   0.43603   0.46034   0.46727   0.47822
     Eigenvalues ---    0.48814   0.49649   0.52304   0.54562   0.60270
     Eigenvalues ---    0.66173
 Angle between quadratic step and forces=   8.22 degrees.
 Linear search not attempted -- first point.
 Variable       Old X    -DE/DX   Delta X   Delta X   Delta X     New X
                                 (Linear)    (Quad)   (Total)
   dih7       2.11850   0.00000   0.00000   0.00000   0.00000   2.11850
  dtor1       3.14159   0.00000   0.00000   0.00000   0.00000   3.14159
   hch4       1.89827   0.00000   0.00000   0.00000   0.00000   1.89827
   dih5      -2.11179   0.00000   0.00000   0.00000   0.00000  -2.11179
   hcc7       1.91006   0.00000   0.00000   0.00000   0.00000   1.91006
   hc4        2.05143   0.00000   0.00000   0.00001   0.00001   2.05144
   hc5        2.05143   0.00000   0.00000   0.00001   0.00001   2.05144
   occ6       1.89228   0.00000   0.00000   0.00000   0.00000   1.89228
   hc8        2.07382   0.00000   0.00000  -0.00001  -0.00001   2.07382
   dih6      -3.14159   0.00000   0.00000   0.00000   0.00000  -3.14159
   cc3        2.91337   0.00000   0.00000   0.00000   0.00000   2.91338
   hoc9       1.81441   0.00000   0.00000   0.00000   0.00000   1.81441
   oc6        2.71276   0.00000   0.00000   0.00000   0.00000   2.71276
   ch2        2.05179   0.00000   0.00000   0.00001   0.00001   2.05179
   hc7        2.07382   0.00000   0.00000  -0.00001  -0.00001   2.07382
   cch3       1.92315   0.00000   0.00000   0.00000   0.00000   1.92315
   dih8      -2.11850   0.00000   0.00000   0.00000   0.00000  -2.11850
   hch5       1.89827   0.00000   0.00000   0.00000   0.00000   1.89827
   ho9        1.87266   0.00000   0.00000   0.00000   0.00000   1.87266
   hcc8       1.91006   0.00000   0.00000   0.00000   0.00000   1.91006
   dih4       2.11179   0.00000   0.00000   0.00000   0.00000   2.11179
         Item               Value     Threshold  Converged?
 Maximum Force            0.000003     0.000450     YES
 RMS     Force            0.000001     0.000300     YES
 Maximum Displacement     0.000007     0.001800     YES
 RMS     Displacement     0.000003     0.001200     YES
 Predicted change in Energy=-4.828463D-11
 Optimization completed.
    -- Stationary point found.
                       ----------------------------
                       !   Optimized Parameters   !
                       ! (Angstroms and Degrees)  !
 ----------------------                            ----------------------
 !      Name          Value   Derivative information (Atomic Units)     !
 ------------------------------------------------------------------------
 !      dih7       121.3811   -DE/DX =    0.0                           !
 !      dtor1      180.0      -DE/DX =    0.0                           !
 !      hch4       108.7628   -DE/DX =    0.0                           !
 !      dih5      -120.9969   -DE/DX =    0.0                           !
 !      hcc7       109.4384   -DE/DX =    0.0                           !
 !       hc4         1.0856   -DE/DX =    0.0                           !
 !       hc5         1.0856   -DE/DX =    0.0                           !
 !      occ6       108.4196   -DE/DX =    0.0                           !
 !       hc8         1.0974   -DE/DX =    0.0                           !
 !      dih6      -179.9999   -DE/DX =    0.0                           !
 !       cc3         1.5417   -DE/DX =    0.0                           !
 !      hoc9       103.9578   -DE/DX =    0.0                           !
 !       oc6         1.4355   -DE/DX =    0.0                           !
 !       ch2         1.0858   -DE/DX =    0.0                           !
 !       hc7         1.0974   -DE/DX =    0.0                           !
 !      cch3       110.1883   -DE/DX =    0.0                           !
 !      dih8      -121.381    -DE/DX =    0.0                           !
 !      hch5       108.7629   -DE/DX =    0.0                           !
 !       ho9         0.991    -DE/DX =    0.0                           !
 !      hcc8       109.4384   -DE/DX =    0.0                           !
 !      dih4       120.9969   -DE/DX =    0.0                           !
 ------------------------------------------------------------------------
 GradGradGradGradGradGradGradGradGradGradGradGradGradGradGradGradGradGrad

 Leave Link  103 at Tue Nov 26 11:11:56 2019, MaxMem= 1073741824 cpu:       0.1
 (Enter /home/programs/G09_64/g09/l9999.exe)

 Test job not archived.
 1\1\GINC-AF2CIQUS\Freq\RHF\STO-3G\C2H6O1\DAVID\26-Nov-2019\1\\#p hf st
 o-3g scf=(incore,verytight) iop(99/9=1,99/14=3) freq=noraman\\--Freque
 ncy calculation--\\0,1\H\C,1,ch2\C,2,cc3,1,cch3\H,2,hc4,1,hch4,3,dih4,
 0\H,2,hc5,1,hch5,3,dih5,0\O,3,oc6,2,occ6,1,dih6,0\H,3,hc7,2,hcc7,6,dih
 7,0\H,3,hc8,2,hcc8,6,dih8,0\H,6,ho9,3,hoc9,2,dtor1,0\\dih7=121.38111\d
 tor1=180.\hch4=108.76283\dih5=-120.99688\hcc7=109.43842\hc4=1.08557\hc
 5=1.08557\occ6=108.41956\hc8=1.09742\dih6=-179.99992\cc3=1.54169\hoc9=
 103.95782\oc6=1.43553\ch2=1.08576\hc7=1.09742\cch3=110.18833\dih8=-121
 .38099\hch5=108.76285\ho9=0.99097\hcc8=109.43843\dih4=120.9969\\Versio
 n=AM64L-G09RevB.01\State=1-A\HF=-152.1326749\RMSD=2.856e-09\RMSF=1.462
 e-06\ZeroPoint=0.0946936\Thermal=0.0987984\Dipole=0.2912963,-0.3380855
 ,0.3467522\DipoleDeriv=0.0238574,-0.0155346,-0.0210675,-0.0042952,-0.0
 346827,-0.005113,-0.0210674,-0.0184922,0.0164771,-0.0151525,0.0030918,
 0.0242373,0.0105768,-0.0627158,0.01259,0.0242373,0.0036804,-0.0066619,
 0.3116194,0.0876837,-0.020399,0.0872432,0.4184373,0.1038535,-0.0203987
 ,0.1043775,0.3044743,0.0192917,-0.0192379,-0.0065565,-0.0153881,0.0367
 595,0.000989,0.0060069,0.0141607,-0.0306173,-0.0290383,0.0172673,-0.00
 24583,0.0036289,0.0367596,-0.0149866,-0.0150218,-0.0165063,0.0177127,-
 0.2906332,-0.0373113,0.2329891,0.0087097,-0.3756394,0.0103681,0.232989
 2,-0.0444143,-0.2090145,-0.0164754,-0.0119931,0.003898,-0.0170927,-0.0
 731862,-0.0409857,0.0200255,0.0249487,-0.0988107,-0.1004256,0.0266438,
 0.0053214,-0.0374221,-0.0731859,-0.0239078,-0.0108064,-0.0075091,-0.01
 48609,0.0969565,-0.0506097,-0.2159647,-0.0359606,0.1274537,-0.0428074,
 -0.2159646,-0.0602454,0.0213011\Polar=12.4469697,1.4990948,14.8005711,
 1.7945479,1.7845017,13.0756323\HyperPolar=1.3588985,1.3718341,1.914980
 1,-14.1317706,3.1466269,3.4889655,2.2795506,4.0135356,2.5940631,3.2485
 841\PG=C01 [X(C2H6O1)]\NImag=0\\0.07163695,-0.00000002,0.06874663,-0.0
 0159437,0.00000002,0.48169081,-0.07475501,0.,0.00433779,0.73676075,0.,
 -0.07974011,-0.00000001,-0.00000012,0.86368939,0.00290692,-0.00000001,
 -0.46394393,-0.04844706,-0.00000008,0.85240371,0.00615666,0.,0.0047643
 2,-0.30157019,-0.00000001,-0.05234103,0.78234474,0.,-0.00089200,0.,0.,
 -0.12655814,0.,0.00000011,0.83368120,-0.04513084,0.,-0.00888069,-0.055
 98660,-0.00000003,-0.13309625,-0.04216113,0.00000030,0.77737792,0.0013
 8056,-0.00300106,-0.00325913,-0.16529012,0.15173954,0.06273745,-0.0185
 1702,0.03666794,0.01604276,0.16866091,-0.00387207,0.00524934,0.0063657
 6,0.15040046,-0.33680681,-0.10220821,-0.00469779,0.00580407,0.00253588
 ,-0.16128293,0.34331596,0.02243835,-0.03914782,-0.00583375,0.06220411,
 -0.10091476,-0.12013600,-0.00930981,0.01676083,0.00679946,-0.06403048,
 0.10934251,0.11226220,0.00138055,0.00300107,-0.00325913,-0.16529000,-0
 .15173944,0.06273746,-0.01851702,-0.03666798,0.01604274,0.01394225,0.0
 2118445,-0.00992687,0.16866079,0.00387208,0.00524936,-0.00636577,-0.15
 040034,-0.33680683,0.10220829,0.00469776,0.00580406,-0.00253588,-0.021
 18445,-0.01947981,0.01516548,0.16128283,0.34331599,0.02243834,0.039147
 81,-0.00583374,0.06220414,0.10091487,-0.12013605,-0.00930982,-0.016760
 84,0.00679946,-0.00992687,-0.01516548,0.00645619,-0.06403048,-0.109342
 59,0.11226225,-0.00977405,0.,-0.00179413,0.00421862,0.00000009,-0.0532
 8868,-0.12812039,0.00000002,-0.03599814,0.00294087,-0.00003415,0.00109
 599,0.00294089,0.00003415,0.00109599,0.72073752,0.,0.00074830,0.,0.,0.
 00378833,0.,-0.00000011,-0.07381363,0.00000048,-0.00126101,0.00004432,
 -0.00035565,0.00126101,0.00004432,0.00035565,0.00000020,0.05483756,-0.
 00017240,0.,0.00135330,-0.00984738,0.00000002,-0.01794972,0.06999991,0
 .00000058,-0.40209815,0.00136311,-0.00012118,0.00117636,0.00136313,0.0
 0012118,0.00117637,0.12242366,-0.00000080,0.59250009,0.00198190,-0.000
 48956,0.00055752,-0.01787566,0.03605216,0.01317727,-0.16069047,0.13673
 860,0.05765874,-0.00645300,-0.00163552,-0.00356480,0.00285357,-0.00008
 367,0.00078215,0.00365316,0.00046090,0.00122543,0.16157729,-0.00001636
 ,0.00016990,0.00022455,-0.00515039,0.00574704,0.00120187,0.13409414,-0
 .32041239,-0.08989579,-0.00150146,0.00088444,-0.00070493,0.00013177,0.
 00096074,0.00015953,-0.00102281,0.00908578,-0.00274016,-0.14748901,0.3
 2453659,0.00098601,0.00015576,0.00091842,-0.00873637,0.01518492,0.0073
 8563,0.05597705,-0.09570273,-0.11026551,-0.00397223,-0.00103484,-0.000
 95369,0.00043716,-0.00031387,0.00003227,0.02372917,-0.03546084,-0.0358
 8347,-0.06184089,0.10443361,0.12588575,0.00198188,0.00048956,0.0005575
 2,-0.01787562,-0.03605223,0.01317717,-0.16069008,-0.13673865,0.0576580
 0,0.00285358,0.00008367,0.00078216,-0.00645300,0.00163551,-0.00356481,
 0.00365317,-0.00046093,0.00122546,0.01332288,0.02182050,-0.00778589,0.
 16157685,0.00001636,0.00016990,-0.00022455,0.00515040,0.00574707,-0.00
 120186,-0.13409420,-0.32041372,0.08989501,-0.00013177,0.00096074,-0.00
 015953,0.00150147,0.00088444,0.00070494,0.00102269,0.00908564,0.002740
 32,-0.02182040,-0.02161739,0.01305792,0.14748907,0.32453803,0.00098601
 ,-0.00015575,0.00091841,-0.00873632,-0.01518493,0.00738559,0.05597627,
 0.09570185,-0.11026457,0.00043717,0.00031388,0.00003227,-0.00397222,0.
 00103484,-0.00095369,0.02372918,0.03546109,-0.03588352,-0.00778595,-0.
 01305806,0.00900941,-0.06184013,-0.10443284,0.12588492,0.00001057,0.,-
 0.00031039,0.00167722,0.,-0.00065949,-0.00039622,-0.00000004,0.0318744
 8,0.00048196,-0.00014612,0.00031136,0.00048196,0.00014612,0.00031136,-
 0.60024980,-0.00000006,-0.18758092,0.00163032,-0.00086639,0.00120600,0
 .00163032,0.00086639,0.00120600,0.59473368,0.,0.00029868,0.,0.,0.00094
 005,0.00000001,0.00000009,-0.00319945,0.00000004,-0.00004481,0.0000277
 4,0.00001388,0.00004480,0.00002774,-0.00001388,-0.00000018,-0.00382062
 ,0.00000004,-0.00173350,0.00064528,-0.00031993,0.00173350,0.00064529,0
 .00031993,0.00000010,0.00443529,-0.00285802,0.,-0.00038884,0.00300769,
 0.00000002,-0.01191298,-0.07359575,0.,-0.02637168,0.00060823,-0.000028
 32,0.00019695,0.00060823,0.00002832,0.00019695,-0.08099303,0.00000008,
 -0.10439126,-0.00020948,0.00037939,0.00387119,-0.00020948,-0.00037941,
 0.00387118,0.15364161,-0.00000008,0.13492849\\0.00000008,0.00000002,0.
 00000248,-0.00000179,0.,0.00000022,-0.00000343,-0.00000019,0.00000072,
 0.00000164,-0.00000280,-0.00000108,0.00000166,0.00000280,-0.00000102,0
 .00000042,0.00000014,0.00000073,0.00000101,-0.00000196,-0.00000106,0.0
 0000100,0.00000199,-0.00000082,-0.00000059,0.,-0.00000017\\\@


 ACHIEVEMENT--  THE MAN WHO ROWS THE BOAT GENERALLY 
                DOESN'T HAVE TIME TO ROCK IT.

                   -- FROM THE BACK OF A SUGAR PACKET
 Job cpu time:  0 days  0 hours  0 minutes 10.9 seconds.
 File lengths (MBytes):  RWF=      5 Int=      0 D2E=      0 Chk=      1 Scr=      1
 Normal termination of Gaussian 09 at Tue Nov 26 11:11:56 2019.
