 Entering Gaussian System, Link 0=/home/programs/G09_64/g09/g09
 Initial command:
 /home/programs/G09_64/g09/l1.exe /scratch/Gau-9569.inp -scrdir=/scratch/
 Entering Link 1 = /home/programs/G09_64/g09/l1.exe PID=      9571.
  
 Copyright (c) 1988,1990,1992,1993,1995,1998,2003,2009,2010,
            Gaussian, Inc.  All Rights Reserved.
  
 This is part of the Gaussian(R) 09 program.  It is based on
 the Gaussian(R) 03 system (copyright 2003, Gaussian, Inc.),
 the Gaussian(R) 98 system (copyright 1998, Gaussian, Inc.),
 the Gaussian(R) 94 system (copyright 1995, Gaussian, Inc.),
 the Gaussian 92(TM) system (copyright 1992, Gaussian, Inc.),
 the Gaussian 90(TM) system (copyright 1990, Gaussian, Inc.),
 the Gaussian 88(TM) system (copyright 1988, Gaussian, Inc.),
 the Gaussian 86(TM) system (copyright 1986, Carnegie Mellon
 University), and the Gaussian 82(TM) system (copyright 1983,
 Carnegie Mellon University). Gaussian is a federally registered
 trademark of Gaussian, Inc.
  
 This software contains proprietary and confidential information,
 including trade secrets, belonging to Gaussian, Inc.
  
 This software is provided under written license and may be
 used, copied, transmitted, or stored only in accord with that
 written license.
  
 The following legend is applicable only to US Government
 contracts under FAR:
  
                    RESTRICTED RIGHTS LEGEND
  
 Use, reproduction and disclosure by the US Government is
 subject to restrictions as set forth in subparagraphs (a)
 and (c) of the Commercial Computer Software - Restricted
 Rights clause in FAR 52.227-19.
  
 Gaussian, Inc.
 340 Quinnipiac St., Bldg. 40, Wallingford CT 06492
  
  
 ---------------------------------------------------------------
 Warning -- This program may not be used in any manner that
 competes with the business of Gaussian, Inc. or will provide
 assistance to any competitor of Gaussian, Inc.  The licensee
 of this program is prohibited from giving any competitor of
 Gaussian, Inc. access to this program.  By using this program,
 the user acknowledges that Gaussian, Inc. is engaged in the
 business of creating and licensing software in the field of
 computational chemistry and represents and warrants to the
 licensee that it is not a competitor of Gaussian, Inc. and that
 it will not use this program in any manner prohibited above.
 ---------------------------------------------------------------
  

 Cite this work as:
 Gaussian 09, Revision B.01,
 M. J. Frisch, G. W. Trucks, H. B. Schlegel, G. E. Scuseria, 
 M. A. Robb, J. R. Cheeseman, G. Scalmani, V. Barone, B. Mennucci, 
 G. A. Petersson, H. Nakatsuji, M. Caricato, X. Li, H. P. Hratchian, 
 A. F. Izmaylov, J. Bloino, G. Zheng, J. L. Sonnenberg, M. Hada, 
 M. Ehara, K. Toyota, R. Fukuda, J. Hasegawa, M. Ishida, T. Nakajima, 
 Y. Honda, O. Kitao, H. Nakai, T. Vreven, J. A. Montgomery, Jr., 
 J. E. Peralta, F. Ogliaro, M. Bearpark, J. J. Heyd, E. Brothers, 
 K. N. Kudin, V. N. Staroverov, T. Keith, R. Kobayashi, J. Normand, 
 K. Raghavachari, A. Rendell, J. C. Burant, S. S. Iyengar, J. Tomasi, 
 M. Cossi, N. Rega, J. M. Millam, M. Klene, J. E. Knox, J. B. Cross, 
 V. Bakken, C. Adamo, J. Jaramillo, R. Gomperts, R. E. Stratmann, 
 O. Yazyev, A. J. Austin, R. Cammi, C. Pomelli, J. W. Ochterski, 
 R. L. Martin, K. Morokuma, V. G. Zakrzewski, G. A. Voth, 
 P. Salvador, J. J. Dannenberg, S. Dapprich, A. D. Daniels, 
 O. Farkas, J. B. Foresman, J. V. Ortiz, J. Cioslowski, 
 and D. J. Fox, Gaussian, Inc., Wallingford CT, 2010.
 
 ******************************************
 Gaussian 09:  AM64L-G09RevB.01 12-Aug-2010
                26-Nov-2019 
 ******************************************
 %nproc=8
 Will use up to    8 processors via shared memory.
 %mem=8Gb
 --------------------------------------------------------------------
 #p hf sto-3g scf=(incore,verytight) iop(99/9=1,99/14=3) freq=noraman
 --------------------------------------------------------------------
 1/10=4,30=1,38=1/1,3;
 2/12=2,17=6,18=5,40=1/2;
 3/6=3,11=9,16=1,25=1,30=1,71=2/1,2,3;
 4//1;
 5/5=3,17=3,38=5,98=1/2;
 8/6=4,10=90,11=11/1;
 11/6=1,8=1,9=11,15=111,16=1/1,2,10;
 10/6=1,20=2,30=1/2;
 6/7=2,8=2,9=2,10=2,18=1,28=1/1;
 7/8=1,10=1,25=1/1,2,3,16;
 1/10=4,30=1/3;
 99/9=1,14=3/99;
 Leave Link    1 at Tue Nov 26 11:56:53 2019, MaxMem= 1073741824 cpu:       0.2
 (Enter /home/programs/G09_64/g09/l101.exe)
 -------------------------
 --Frequency calculation--
 -------------------------
 Symbolic Z-matrix:
 Charge =  0 Multiplicity = 2
 H
 C                    1    ch2
 C                    2    cc3      1    cch3
 H                    2    hc4      1    hch4     3    dih4     0
 H                    2    hc5      1    hch5     3    dih5     0
 O                    3    oc6      2    occ6     1    dih6     0
 H                    3    hc7      2    hcc7     6    dih7     0
 H                    3    hc8      2    hcc8     6    dih8     0
 H                    6    ho9      3    hoc9     2    dtor1    0
 H                    9    hh10     6    hho10    3    dih10    0
       Variables:
  occ6                107.99434                  
  hcc7                109.50603                  
  hcc8                109.50603                  
  cc3                   1.54266                  
  hho10               174.92255                  
  hh10                  1.09997                  
  dih5               -120.98086                  
  dih4                120.98087                  
  dih7                121.20584                  
  dih6                180.                       
  dih8               -121.20583                  
  hoc9                103.99651                  
  cch3                110.07115                  
  hch5                108.74559                  
  hch4                108.74559                  
  dtor1               180.                       
  hc7                   1.09666                  
  hc4                   1.08567                  
  hc5                   1.08567                  
  hc8                   1.09666                  
  ch2                   1.08576                  
  dih10                 0.                       
  ho9                   1.06632                  
  oc6                   1.43866                  
 
 NAtoms=     10 NQM=     10 NQMF=      0 NMic=      0 NMicF=      0 NTot=     10.
                    Isotopes and Nuclear Properties:
 (Nuclear quadrupole moments (NQMom) in fm**2, nuclear magnetic moments (NMagM)
  in nuclear magnetons)

  Atom         1           2           3           4           5           6           7           8           9          10
 IAtWgt=           1          12          12           1           1          16           1           1           1           1
 AtmWgt=   1.0078250  12.0000000  12.0000000   1.0078250   1.0078250  15.9949146   1.0078250   1.0078250   1.0078250   1.0078250
 NucSpn=           1           0           0           1           1           0           1           1           1           1
 AtZEff=   0.0000000   0.0000000   0.0000000   0.0000000   0.0000000   0.0000000   0.0000000   0.0000000   0.0000000   0.0000000
 NQMom=    0.0000000   0.0000000   0.0000000   0.0000000   0.0000000   0.0000000   0.0000000   0.0000000   0.0000000   0.0000000
 NMagM=    2.7928460   0.0000000   0.0000000   2.7928460   2.7928460   0.0000000   2.7928460   2.7928460   2.7928460   2.7928460
 Leave Link  101 at Tue Nov 26 11:56:53 2019, MaxMem= 1073741824 cpu:       0.6
 (Enter /home/programs/G09_64/g09/l103.exe)

 GradGradGradGradGradGradGradGradGradGradGradGradGradGradGradGradGradGrad
 Berny optimization.
 Initialization pass.
                       ----------------------------
                       !    Initial Parameters    !
                       ! (Angstroms and Degrees)  !
 ----------------------                            ----------------------
 !      Name          Value   Derivative information (Atomic Units)     !
 ------------------------------------------------------------------------
 !      occ6       107.9943   calculate D2E/DX2 analytically            !
 !      hcc7       109.506    calculate D2E/DX2 analytically            !
 !      hcc8       109.506    calculate D2E/DX2 analytically            !
 !       cc3         1.5427   calculate D2E/DX2 analytically            !
 !      hho10      174.9226   calculate D2E/DX2 analytically            !
 !      hh10         1.1      calculate D2E/DX2 analytically            !
 !      dih5      -120.9809   calculate D2E/DX2 analytically            !
 !      dih4       120.9809   calculate D2E/DX2 analytically            !
 !      dih7       121.2058   calculate D2E/DX2 analytically            !
 !      dih6       180.0      calculate D2E/DX2 analytically            !
 !      dih8      -121.2058   calculate D2E/DX2 analytically            !
 !      hoc9       103.9965   calculate D2E/DX2 analytically            !
 !      cch3       110.0712   calculate D2E/DX2 analytically            !
 !      hch5       108.7456   calculate D2E/DX2 analytically            !
 !      hch4       108.7456   calculate D2E/DX2 analytically            !
 !      dtor1      180.0      calculate D2E/DX2 analytically            !
 !       hc7         1.0967   calculate D2E/DX2 analytically            !
 !       hc4         1.0857   calculate D2E/DX2 analytically            !
 !       hc5         1.0857   calculate D2E/DX2 analytically            !
 !       hc8         1.0967   calculate D2E/DX2 analytically            !
 !       ch2         1.0858   calculate D2E/DX2 analytically            !
 !      dih10        0.0      calculate D2E/DX2 analytically            !
 !       ho9         1.0663   calculate D2E/DX2 analytically            !
 !       oc6         1.4387   calculate D2E/DX2 analytically            !
 ------------------------------------------------------------------------
 Trust Radius=3.00D-01 FncErr=1.00D-07 GrdErr=1.00D-07
 Number of steps in this run=      2 maximum allowed number of steps=      2.
 GradGradGradGradGradGradGradGradGradGradGradGradGradGradGradGradGradGrad

 Leave Link  103 at Tue Nov 26 11:56:53 2019, MaxMem= 1073741824 cpu:       0.1
 (Enter /home/programs/G09_64/g09/l202.exe)
                          Input orientation:                          
 ---------------------------------------------------------------------
 Center     Atomic      Atomic             Coordinates (Angstroms)
 Number     Number       Type             X           Y           Z
 ---------------------------------------------------------------------
      1          1           0        0.000000    0.000000    0.000000
      2          6           0        0.000000    0.000000    1.085760
      3          6           0        1.448970    0.000000    1.615181
      4          1           0       -0.529206    0.881414    1.434658
      5          1           0       -0.529206   -0.881414    1.434658
      6          8           0        1.396834    0.000000    3.052896
      7          1           0        1.976718   -0.884151    1.237792
      8          1           0        1.976718    0.884152    1.237793
      9          1           0        2.421470    0.000000    3.348125
     10          1           0        3.501245    0.000000    3.557931
 ---------------------------------------------------------------------
                    Distance matrix (angstroms):
                    1          2          3          4          5
     1  H    0.000000
     2  C    1.085760   0.000000
     3  C    2.169867   1.542660   0.000000
     4  H    1.764991   1.085670   2.173168   0.000000
     5  H    1.764991   1.085670   2.173168   1.762828   0.000000
     6  O    3.357278   2.412627   1.438660   2.665561   2.665561
     7  H    2.494247   2.170772   1.096660   3.071747   2.513646
     8  H    2.494247   2.170772   1.096660   2.513646   3.071747
     9  H    4.132004   3.313881   1.987172   3.625567   3.625566
    10  H    4.991752   4.286064   2.825971   4.640013   4.640013
                    6          7          8          9         10
     6  O    0.000000
     7  H    2.100616   0.000000
     8  H    2.100616   1.768303   0.000000
     9  H    1.066320   2.330886   2.330886   0.000000
    10  H    2.164164   2.913580   2.913580   1.099970   0.000000
 Stoichiometry    C2H7O(2)
 Framework group  CS[SG(C2H3O),X(H4)]
 Deg. of freedom    15
 Full point group                 CS      NOp   2
 Largest Abelian subgroup         CS      NOp   2
 Largest concise Abelian subgroup CS      NOp   2
                         Standard orientation:                         
 ---------------------------------------------------------------------
 Center     Atomic      Atomic             Coordinates (Angstroms)
 Number     Number       Type             X           Y           Z
 ---------------------------------------------------------------------
      1          1           0       -2.169841    0.506319    0.000000
      2          6           0       -1.358082   -0.214738    0.000000
      3          6           0        0.000000    0.516982    0.000000
      4          1           0       -1.448679   -0.842098    0.881414
      5          1           0       -1.448679   -0.842098   -0.881414
      6          8           0        1.040271   -0.476788    0.000000
      7          1           0        0.068328    1.162172   -0.884151
      8          1           0        0.068328    1.162172    0.884151
      9          1           0        1.941460    0.093210    0.000000
     10          1           0        2.815402    0.761161    0.000000
 ---------------------------------------------------------------------
 Rotational constants (GHZ):     32.7091725      7.9761143      6.9679581
 Leave Link  202 at Tue Nov 26 11:56:53 2019, MaxMem= 1073741824 cpu:       0.0
 (Enter /home/programs/G09_64/g09/l301.exe)
 Standard basis: STO-3G (5D, 7F)
 Ernie: Thresh=  0.10000D-02 Tol=  0.10000D-05 Strict=F.
 There are    17 symmetry adapted basis functions of A'  symmetry.
 There are     5 symmetry adapted basis functions of A"  symmetry.
 Integral buffers will be    131072 words long.
 Raffenetti 2 integral format.
 Two-electron integral symmetry is turned on.
    22 basis functions,    66 primitive gaussians,    22 cartesian basis functions
    14 alpha electrons       13 beta electrons
       nuclear repulsion energy        85.6631332261 Hartrees.
 IExCor=    0 DFT=F Ex=HF Corr=None ExCW=0 ScaHFX=  1.000000
 ScaDFX=  1.000000  1.000000  1.000000  1.000000 ScalE2=  1.000000  1.000000
 IRadAn=      0 IRanWt=     -1 IRanGd=            0 ICorTp=0
 NAtoms=   10 NActive=   10 NUniq=    8 SFac= 1.56D+00 NAtFMM=   50 NAOKFM=F Big=F
 Leave Link  301 at Tue Nov 26 11:56:53 2019, MaxMem= 1073741824 cpu:       0.3
 (Enter /home/programs/G09_64/g09/l302.exe)
 NPDir=0 NMtPBC=     1 NCelOv=     1 NCel=       1 NClECP=     1 NCelD=      1
         NCelK=      1 NCelE2=     1 NClLst=     1 CellRange=     0.0.
 One-electron integrals computed using PRISM.
 One-electron integral symmetry used in STVInt
 NBasis=    22 RedAO= T  NBF=    17     5
 NBsUse=    22 1.00D-06 NBFU=    17     5
 Leave Link  302 at Tue Nov 26 11:56:53 2019, MaxMem= 1073741824 cpu:       0.9
 (Enter /home/programs/G09_64/g09/l303.exe)
 DipDrv:  MaxL=1.
 Leave Link  303 at Tue Nov 26 11:56:53 2019, MaxMem= 1073741824 cpu:       0.2
 (Enter /home/programs/G09_64/g09/l401.exe)
 Harris functional with IExCor=  205 diagonalized for initial guess.
 ExpMin= 1.69D-01 ExpMax= 1.31D+02 ExpMxC= 1.31D+02 IAcc=1 IRadAn=         1 AccDes= 0.00D+00
 HarFok:  IExCor=  205 AccDes= 0.00D+00 IRadAn=         1 IDoV= 1
 ScaDFX=  1.000000  1.000000  1.000000  1.000000
 FoFCou: FMM=F IPFlag=           0 FMFlag=      100000 FMFlg1=           0
         NFxFlg=           0 DoJE=T BraDBF=F KetDBF=T FulRan=T
         Omega=  0.000000  0.000000  1.000000  0.000000  0.000000 ICntrl=     500 IOpCl=  0
         NMat0=    1 NMatS0=    1 NMatT0=    0 NMatD0=    1 NMtDS0=    0 NMtDT0=    0
         I1Cent=           4 NGrid=           0.
 Petite list used in FoFCou.
 Harris En= -152.790292671412    
 Initial guess orbital symmetries:
 Alpha Orbitals:
       Occupied  (A') (A') (A') (A') (A') (A') (A') (A") (A') (A')
                 (A") (A') (A") (A')
       Virtual   (A') (A') (A") (A') (A') (A") (A') (A')
 Beta  Orbitals:
       Occupied  (A') (A') (A') (A') (A') (A') (A') (A") (A') (A')
                 (A") (A') (A")
       Virtual   (A') (A') (A') (A") (A') (A') (A") (A') (A')
 The electronic state of the initial guess is 2-A'.
 Initial guess <Sx>= 0.0000 <Sy>= 0.0000 <Sz>= 0.5000 <S**2>= 0.7500 S= 0.5000
 Leave Link  401 at Tue Nov 26 11:56:53 2019, MaxMem= 1073741824 cpu:       1.0
 (Enter /home/programs/G09_64/g09/l502.exe)
 UHF open shell SCF:
 Requested convergence on RMS density matrix=1.00D-08 within 128 cycles.
 Requested convergence on MAX density matrix=1.00D-06.
 Requested convergence on             energy=1.00D-06.
 No special actions if energy rises.
 Using DIIS extrapolation, IDIIS=  1040.
 Integral symmetry usage will be decided dynamically.
 Keep R1 and R2 ints in memory in canonical form, NReq=884279.
 IEnd=       19996 IEndB=       19996 NGot=  1073741824 MDV=  1073674685
 LenX=  1073674685 LenY=  1073673760
 Symmetry not used in FoFDir.
 MinBra= 0 MaxBra= 1 Meth= 1.
 IRaf=       0 NMat=   1 IRICut=       1 DoRegI=T DoRafI=F ISym2E= 0 JSym2E=0.

 Cycle   1  Pass 1  IDiag  1:
 E= -152.489292006889    
 DIIS: error= 4.60D-02 at cycle   1 NSaved=   1.
 NSaved= 1 IEnMin= 1 EnMin= -152.489292006889     IErMin= 1 ErrMin= 4.60D-02
 ErrMax= 4.60D-02 EMaxC= 1.00D-01 BMatC= 3.08D-01 BMatP= 3.08D-01
 IDIUse=3 WtCom= 5.40D-01 WtEn= 4.60D-01
 Coeff-Com:  0.100D+01
 Coeff-En:   0.100D+01
 Coeff:      0.100D+01
 Gap=     0.951 Goal=   None    Shift=    0.000
 Gap=     0.433 Goal=   None    Shift=    0.000
 GapD=    0.433 DampG=2.000 DampE=0.500 DampFc=1.0000 IDamp=-1.
 RMSDP=1.85D-02 MaxDP=1.38D-01              OVMax= 0.00D+00

 Cycle   2  Pass 1  IDiag  1:
 E= -152.578451933388     Delta-E=       -0.089159926499 Rises=F Damp=F
 DIIS: error= 1.22D-02 at cycle   2 NSaved=   2.
 NSaved= 2 IEnMin= 2 EnMin= -152.578451933388     IErMin= 2 ErrMin= 1.22D-02
 ErrMax= 1.22D-02 EMaxC= 1.00D-01 BMatC= 1.38D-02 BMatP= 3.08D-01
 IDIUse=3 WtCom= 8.78D-01 WtEn= 1.22D-01
 Coeff-Com:  0.641D-01 0.936D+00
 Coeff-En:   0.000D+00 0.100D+01
 Coeff:      0.563D-01 0.944D+00
 Gap=     0.961 Goal=   None    Shift=    0.000
 Gap=     0.554 Goal=   None    Shift=    0.000
 RMSDP=4.10D-03 MaxDP=3.31D-02 DE=-8.92D-02 OVMax= 0.00D+00

 Cycle   3  Pass 1  IDiag  1:
 E= -152.584195082419     Delta-E=       -0.005743149031 Rises=F Damp=F
 DIIS: error= 5.42D-03 at cycle   3 NSaved=   3.
 NSaved= 3 IEnMin= 3 EnMin= -152.584195082419     IErMin= 3 ErrMin= 5.42D-03
 ErrMax= 5.42D-03 EMaxC= 1.00D-01 BMatC= 1.86D-03 BMatP= 1.38D-02
 IDIUse=3 WtCom= 9.46D-01 WtEn= 5.42D-02
 Coeff-Com: -0.435D-01-0.169D+00 0.121D+01
 Coeff-En:   0.000D+00 0.000D+00 0.100D+01
 Coeff:     -0.412D-01-0.159D+00 0.120D+01
 Gap=     0.942 Goal=   None    Shift=    0.000
 Gap=     0.557 Goal=   None    Shift=    0.000
 RMSDP=1.96D-03 MaxDP=2.99D-02 DE=-5.74D-03 OVMax= 0.00D+00

 Cycle   4  Pass 1  IDiag  1:
 E= -152.585349963568     Delta-E=       -0.001154881149 Rises=F Damp=F
 DIIS: error= 2.17D-03 at cycle   4 NSaved=   4.
 NSaved= 4 IEnMin= 4 EnMin= -152.585349963568     IErMin= 4 ErrMin= 2.17D-03
 ErrMax= 2.17D-03 EMaxC= 1.00D-01 BMatC= 2.61D-04 BMatP= 1.86D-03
 IDIUse=3 WtCom= 9.78D-01 WtEn= 2.17D-02
 Coeff-Com:  0.584D-02-0.399D-01-0.417D+00 0.145D+01
 Coeff-En:   0.000D+00 0.000D+00 0.000D+00 0.100D+01
 Coeff:      0.572D-02-0.390D-01-0.408D+00 0.144D+01
 Gap=     0.944 Goal=   None    Shift=    0.000
 Gap=     0.563 Goal=   None    Shift=    0.000
 RMSDP=9.75D-04 MaxDP=1.59D-02 DE=-1.15D-03 OVMax= 0.00D+00

 Cycle   5  Pass 1  IDiag  1:
 E= -152.585542020717     Delta-E=       -0.000192057149 Rises=F Damp=F
 DIIS: error= 6.05D-04 at cycle   5 NSaved=   5.
 NSaved= 5 IEnMin= 5 EnMin= -152.585542020717     IErMin= 5 ErrMin= 6.05D-04
 ErrMax= 6.05D-04 EMaxC= 1.00D-01 BMatC= 2.08D-05 BMatP= 2.61D-04
 IDIUse=3 WtCom= 9.94D-01 WtEn= 6.05D-03
 Coeff-Com:  0.186D-02 0.979D-02-0.259D-01-0.131D+00 0.115D+01
 Coeff-En:   0.000D+00 0.000D+00 0.000D+00 0.000D+00 0.100D+01
 Coeff:      0.185D-02 0.973D-02-0.257D-01-0.130D+00 0.114D+01
 Gap=     0.944 Goal=   None    Shift=    0.000
 Gap=     0.564 Goal=   None    Shift=    0.000
 RMSDP=2.27D-04 MaxDP=2.62D-03 DE=-1.92D-04 OVMax= 0.00D+00

 Cycle   6  Pass 1  IDiag  1:
 E= -152.585559340101     Delta-E=       -0.000017319384 Rises=F Damp=F
 DIIS: error= 3.79D-04 at cycle   6 NSaved=   6.
 NSaved= 6 IEnMin= 6 EnMin= -152.585559340101     IErMin= 6 ErrMin= 3.79D-04
 ErrMax= 3.79D-04 EMaxC= 1.00D-01 BMatC= 6.45D-06 BMatP= 2.08D-05
 IDIUse=3 WtCom= 9.96D-01 WtEn= 3.79D-03
 Coeff-Com: -0.182D-02-0.175D-03 0.101D+00-0.238D+00-0.593D+00 0.173D+01
 Coeff-En:   0.000D+00 0.000D+00 0.000D+00 0.000D+00 0.000D+00 0.100D+01
 Coeff:     -0.182D-02-0.174D-03 0.100D+00-0.237D+00-0.591D+00 0.173D+01
 Gap=     0.944 Goal=   None    Shift=    0.000
 Gap=     0.564 Goal=   None    Shift=    0.000
 RMSDP=2.30D-04 MaxDP=2.25D-03 DE=-1.73D-05 OVMax= 0.00D+00

 Cycle   7  Pass 1  IDiag  1:
 E= -152.585568421163     Delta-E=       -0.000009081062 Rises=F Damp=F
 DIIS: error= 1.07D-04 at cycle   7 NSaved=   7.
 NSaved= 7 IEnMin= 7 EnMin= -152.585568421163     IErMin= 7 ErrMin= 1.07D-04
 ErrMax= 1.07D-04 EMaxC= 1.00D-01 BMatC= 1.08D-06 BMatP= 6.45D-06
 IDIUse=3 WtCom= 9.99D-01 WtEn= 1.07D-03
 Coeff-Com:  0.110D-02-0.391D-02-0.671D-01 0.192D+00 0.247D+00-0.130D+01
 Coeff-Com:  0.193D+01
 Coeff-En:   0.000D+00 0.000D+00 0.000D+00 0.000D+00 0.000D+00 0.000D+00
 Coeff-En:   0.100D+01
 Coeff:      0.109D-02-0.391D-02-0.670D-01 0.191D+00 0.247D+00-0.129D+01
 Coeff:      0.193D+01
 Gap=     0.944 Goal=   None    Shift=    0.000
 Gap=     0.564 Goal=   None    Shift=    0.000
 RMSDP=1.27D-04 MaxDP=1.30D-03 DE=-9.08D-06 OVMax= 0.00D+00

 Cycle   8  Pass 1  IDiag  1:
 E= -152.585570413509     Delta-E=       -0.000001992346 Rises=F Damp=F
 DIIS: error= 4.10D-05 at cycle   8 NSaved=   8.
 NSaved= 8 IEnMin= 8 EnMin= -152.585570413509     IErMin= 8 ErrMin= 4.10D-05
 ErrMax= 4.10D-05 EMaxC= 1.00D-01 BMatC= 1.40D-07 BMatP= 1.08D-06
 IDIUse=1 WtCom= 1.00D+00 WtEn= 0.00D+00
 Coeff-Com: -0.271D-04 0.626D-03 0.460D-02-0.178D-01 0.203D-01 0.867D-01
 Coeff-Com: -0.512D+00 0.142D+01
 Coeff:     -0.271D-04 0.626D-03 0.460D-02-0.178D-01 0.203D-01 0.867D-01
 Coeff:     -0.512D+00 0.142D+01
 Gap=     0.944 Goal=   None    Shift=    0.000
 Gap=     0.564 Goal=   None    Shift=    0.000
 RMSDP=4.18D-05 MaxDP=4.98D-04 DE=-1.99D-06 OVMax= 0.00D+00

 Cycle   9  Pass 1  IDiag  1:
 E= -152.585570633616     Delta-E=       -0.000000220107 Rises=F Damp=F
 DIIS: error= 1.88D-05 at cycle   9 NSaved=   9.
 NSaved= 9 IEnMin= 9 EnMin= -152.585570633616     IErMin= 9 ErrMin= 1.88D-05
 ErrMax= 1.88D-05 EMaxC= 1.00D-01 BMatC= 2.34D-08 BMatP= 1.40D-07
 IDIUse=1 WtCom= 1.00D+00 WtEn= 0.00D+00
 Coeff-Com: -0.248D-03 0.649D-03 0.150D-01-0.417D-01-0.679D-01 0.297D+00
 Coeff-Com: -0.293D+00-0.537D+00 0.163D+01
 Coeff:     -0.248D-03 0.649D-03 0.150D-01-0.417D-01-0.679D-01 0.297D+00
 Coeff:     -0.293D+00-0.537D+00 0.163D+01
 Gap=     0.944 Goal=   None    Shift=    0.000
 Gap=     0.564 Goal=   None    Shift=    0.000
 RMSDP=1.93D-05 MaxDP=2.69D-04 DE=-2.20D-07 OVMax= 0.00D+00

 Cycle  10  Pass 1  IDiag  1:
 E= -152.585570670753     Delta-E=       -0.000000037138 Rises=F Damp=F
 DIIS: error= 4.18D-06 at cycle  10 NSaved=  10.
 NSaved=10 IEnMin=10 EnMin= -152.585570670753     IErMin=10 ErrMin= 4.18D-06
 ErrMax= 4.18D-06 EMaxC= 1.00D-01 BMatC= 9.81D-10 BMatP= 2.34D-08
 IDIUse=1 WtCom= 1.00D+00 WtEn= 0.00D+00
 Coeff-Com:  0.996D-04-0.268D-03-0.644D-02 0.177D-01 0.276D-01-0.125D+00
 Coeff-Com:  0.144D+00 0.161D+00-0.725D+00 0.151D+01
 Coeff:      0.996D-04-0.268D-03-0.644D-02 0.177D-01 0.276D-01-0.125D+00
 Coeff:      0.144D+00 0.161D+00-0.725D+00 0.151D+01
 Gap=     0.944 Goal=   None    Shift=    0.000
 Gap=     0.564 Goal=   None    Shift=    0.000
 RMSDP=2.69D-06 MaxDP=3.48D-05 DE=-3.71D-08 OVMax= 0.00D+00

 Cycle  11  Pass 1  IDiag  1:
 E= -152.585570671890     Delta-E=       -0.000000001137 Rises=F Damp=F
 DIIS: error= 6.63D-07 at cycle  11 NSaved=  11.
 NSaved=11 IEnMin=11 EnMin= -152.585570671890     IErMin=11 ErrMin= 6.63D-07
 ErrMax= 6.63D-07 EMaxC= 1.00D-01 BMatC= 7.38D-11 BMatP= 9.81D-10
 IDIUse=1 WtCom= 1.00D+00 WtEn= 0.00D+00
 Coeff-Com: -0.412D-04 0.112D-03 0.275D-02-0.744D-02-0.114D-01 0.522D-01
 Coeff-Com: -0.626D-01-0.628D-01 0.312D+00-0.810D+00 0.159D+01
 Coeff:     -0.412D-04 0.112D-03 0.275D-02-0.744D-02-0.114D-01 0.522D-01
 Coeff:     -0.626D-01-0.628D-01 0.312D+00-0.810D+00 0.159D+01
 Gap=     0.944 Goal=   None    Shift=    0.000
 Gap=     0.564 Goal=   None    Shift=    0.000
 RMSDP=6.28D-07 MaxDP=4.05D-06 DE=-1.14D-09 OVMax= 0.00D+00

 Cycle  12  Pass 1  IDiag  1:
 E= -152.585570671960     Delta-E=       -0.000000000069 Rises=F Damp=F
 DIIS: error= 2.85D-07 at cycle  12 NSaved=  12.
 NSaved=12 IEnMin=12 EnMin= -152.585570671960     IErMin=12 ErrMin= 2.85D-07
 ErrMax= 2.85D-07 EMaxC= 1.00D-01 BMatC= 1.35D-11 BMatP= 7.38D-11
 IDIUse=1 WtCom= 1.00D+00 WtEn= 0.00D+00
 Coeff-Com:  0.121D-04-0.257D-04-0.880D-03 0.226D-02 0.367D-02-0.159D-01
 Coeff-Com:  0.183D-01 0.278D-01-0.117D+00 0.346D+00-0.103D+01 0.177D+01
 Coeff:      0.121D-04-0.257D-04-0.880D-03 0.226D-02 0.367D-02-0.159D-01
 Coeff:      0.183D-01 0.278D-01-0.117D+00 0.346D+00-0.103D+01 0.177D+01
 Gap=     0.944 Goal=   None    Shift=    0.000
 Gap=     0.564 Goal=   None    Shift=    0.000
 RMSDP=3.23D-07 MaxDP=1.90D-06 DE=-6.92D-11 OVMax= 0.00D+00

 Cycle  13  Pass 1  IDiag  1:
 E= -152.585570671976     Delta-E=       -0.000000000017 Rises=F Damp=F
 DIIS: error= 1.32D-07 at cycle  13 NSaved=  13.
 NSaved=13 IEnMin=13 EnMin= -152.585570671976     IErMin=13 ErrMin= 1.32D-07
 ErrMax= 1.32D-07 EMaxC= 1.00D-01 BMatC= 2.09D-12 BMatP= 1.35D-11
 IDIUse=1 WtCom= 1.00D+00 WtEn= 0.00D+00
 Coeff-Com: -0.348D-05 0.461D-05 0.291D-03-0.681D-03-0.126D-02 0.490D-02
 Coeff-Com: -0.540D-02-0.122D-01 0.448D-01-0.143D+00 0.517D+00-0.136D+01
 Coeff-Com:  0.195D+01
 Coeff:     -0.348D-05 0.461D-05 0.291D-03-0.681D-03-0.126D-02 0.490D-02
 Coeff:     -0.540D-02-0.122D-01 0.448D-01-0.143D+00 0.517D+00-0.136D+01
 Coeff:      0.195D+01
 Gap=     0.944 Goal=   None    Shift=    0.000
 Gap=     0.564 Goal=   None    Shift=    0.000
 RMSDP=1.64D-07 MaxDP=9.68D-07 DE=-1.68D-11 OVMax= 0.00D+00

 Cycle  14  Pass 1  IDiag  1:
 E= -152.585570671979     Delta-E=       -0.000000000003 Rises=F Damp=F
 DIIS: error= 3.64D-08 at cycle  14 NSaved=  14.
 NSaved=14 IEnMin=14 EnMin= -152.585570671979     IErMin=14 ErrMin= 3.64D-08
 ErrMax= 3.64D-08 EMaxC= 1.00D-01 BMatC= 9.54D-14 BMatP= 2.09D-12
 IDIUse=1 WtCom= 1.00D+00 WtEn= 0.00D+00
 Coeff-Com:  0.953D-06 0.277D-06-0.973D-04 0.201D-03 0.440D-03-0.149D-02
 Coeff-Com:  0.147D-02 0.569D-02-0.183D-01 0.605D-01-0.236D+00 0.690D+00
 Coeff-Com: -0.117D+01 0.167D+01
 Coeff:      0.953D-06 0.277D-06-0.973D-04 0.201D-03 0.440D-03-0.149D-02
 Coeff:      0.147D-02 0.569D-02-0.183D-01 0.605D-01-0.236D+00 0.690D+00
 Coeff:     -0.117D+01 0.167D+01
 Gap=     0.944 Goal=   None    Shift=    0.000
 Gap=     0.564 Goal=   None    Shift=    0.000
 RMSDP=3.17D-08 MaxDP=2.01D-07 DE=-2.87D-12 OVMax= 0.00D+00

 Cycle  15  Pass 1  IDiag  1:
 E= -152.585570671979     Delta-E=        0.000000000000 Rises=F Damp=F
 DIIS: error= 9.75D-09 at cycle  15 NSaved=  15.
 NSaved=15 IEnMin=15 EnMin= -152.585570671979     IErMin=15 ErrMin= 9.75D-09
 ErrMax= 9.75D-09 EMaxC= 1.00D-01 BMatC= 6.87D-15 BMatP= 9.54D-14
 IDIUse=1 WtCom= 1.00D+00 WtEn= 0.00D+00
 Coeff-Com: -0.438D-06-0.172D-06 0.457D-04-0.924D-04-0.207D-03 0.686D-03
 Coeff-Com: -0.681D-03-0.272D-02 0.865D-02-0.285D-01 0.111D+00-0.327D+00
 Coeff-Com:  0.573D+00-0.988D+00 0.165D+01
 Coeff:     -0.438D-06-0.172D-06 0.457D-04-0.924D-04-0.207D-03 0.686D-03
 Coeff:     -0.681D-03-0.272D-02 0.865D-02-0.285D-01 0.111D+00-0.327D+00
 Coeff:      0.573D+00-0.988D+00 0.165D+01
 Gap=     0.944 Goal=   None    Shift=    0.000
 Gap=     0.564 Goal=   None    Shift=    0.000
 RMSDP=6.31D-09 MaxDP=5.26D-08 DE=-8.53D-14 OVMax= 0.00D+00

 SCF Done:  E(UHF) =  -152.585570672     A.U. after   15 cycles
             Convg  =    0.6307D-08             -V/T =  2.0066
 <Sx>= 0.0000 <Sy>= 0.0000 <Sz>= 0.5000 <S**2>= 0.7882 S= 0.5189
 <L.S>= 0.000000000000E+00
 KE= 1.515835970036D+02 PE=-5.298222254350D+02 EE= 1.399899245334D+02
 Annihilation of the first spin contaminant:
 S**2 before annihilation     0.7882,   after     0.7501
 Leave Link  502 at Tue Nov 26 11:56:53 2019, MaxMem= 1073741824 cpu:       0.5
 (Enter /home/programs/G09_64/g09/l801.exe)
 Range of M.O.s used for correlation:     1    22
 NBasis=    22 NAE=    14 NBE=    13 NFC=     0 NFV=     0
 NROrb=     22 NOA=    14 NOB=    13 NVA=     8 NVB=     9
 Leave Link  801 at Tue Nov 26 11:56:54 2019, MaxMem= 1073741824 cpu:       0.2
 (Enter /home/programs/G09_64/g09/l1101.exe)
 Using compressed storage, NAtomX=    10.
 Will process  11 centers per pass.
 Leave Link 1101 at Tue Nov 26 11:56:54 2019, MaxMem= 1073741824 cpu:       0.8
 (Enter /home/programs/G09_64/g09/l1102.exe)
 Symmetrizing basis deriv contribution to polar:
 IMax=3 JMax=2 DiffMx= 0.00D+00
 Leave Link 1102 at Tue Nov 26 11:56:54 2019, MaxMem= 1073741824 cpu:       0.2
 (Enter /home/programs/G09_64/g09/l1110.exe)
 Forming Gx(P) for the SCF density, NAtomX=    10.
 Integral derivatives from FoFDir/FoFCou, PRISM(SPDF).
 Do as many integral derivatives as possible in FoFDir.
 G2DrvN: MDV=    1073741640.
 G2DrvN: will do    11 centers at a time, making    1 passes doing MaxLOS=1.
 Calling FoFCou, ICntrl=  3107 FMM=F I1Cent=   0 AccDes= 0.00D+00.
 FoFCou: FMM=F IPFlag=           0 FMFlag=      100000 FMFlg1=           0
         NFxFlg=           0 DoJE=F BraDBF=F KetDBF=F FulRan=T
         Omega=  0.000000  0.000000  1.000000  0.000000  0.000000 ICntrl=    3107 IOpCl=  1
         NMat0=    1 NMatS0=    1 NMatT0=    0 NMatD0=    1 NMtDS0=    0 NMtDT0=    0
         I1Cent=           0 NGrid=           0.
 Petite list used in FoFCou.
 FoFDir/FoFCou used for L=0 through L=1.
 End of G2Drv Frequency-dependent properties file   721 does not exist.
 End of G2Drv Frequency-dependent properties file   722 does not exist.
 Leave Link 1110 at Tue Nov 26 11:56:54 2019, MaxMem= 1073741824 cpu:       0.7
 (Enter /home/programs/G09_64/g09/l1002.exe)
 Minotr:  UHF open shell wavefunction.
          IDoAtm=1111111111
          Direct CPHF calculation.
          Differentiating once with respect to electric field.
                with respect to dipole field.
          Differentiating once with respect to nuclear coordinates.
          Using symmetry in CPHF.
          Requested convergence is 1.0D-08 RMS, and 1.0D-07 maximum.
          Secondary convergence is 1.0D-12 RMS, and 1.0D-12 maximum.
          NewPWx=T KeepS1=F KeepF1=F KeepIn=T MapXYZ=F SortEE=F KeepMc=T.
          MDV=    1073741720 using IRadAn=       2.
          Keep R1 and R2 ints in memory in canonical form, NReq=865027.
 Symmetry not used in FoFDir.
 MinBra= 0 MaxBra= 1 Meth= 1.
 IRaf=       0 NMat=   1 IRICut=       1 DoRegI=T DoRafI=F ISym2E= 0 JSym2E=0.
          Solving linear equations simultaneously, MaxMat=       0.
          There are    27 degrees of freedom in the 1st order CPHF.  IDoFFX=4.
     27 vectors produced by pass  0 Test12= 8.48D-16 3.70D-09 XBig12= 8.42D+00 1.49D+00.
 AX will form    27 AO Fock derivatives at one time.
     27 vectors produced by pass  1 Test12= 8.48D-16 3.70D-09 XBig12= 1.49D-01 1.31D-01.
     27 vectors produced by pass  2 Test12= 8.48D-16 3.70D-09 XBig12= 7.65D-04 6.32D-03.
     27 vectors produced by pass  3 Test12= 8.48D-16 3.70D-09 XBig12= 1.31D-06 2.77D-04.
     27 vectors produced by pass  4 Test12= 8.48D-16 3.70D-09 XBig12= 6.42D-09 1.59D-05.
     22 vectors produced by pass  5 Test12= 8.48D-16 3.70D-09 XBig12= 2.00D-11 1.02D-06.
      2 vectors produced by pass  6 Test12= 8.48D-16 3.70D-09 XBig12= 4.11D-14 7.41D-08.
 Inverted reduced A of dimension   159 with in-core refinement.
 FullF1:  Do perturbations    1 to    27.
 Isotropic polarizability for W=    0.000000       17.38 Bohr**3.
 End of Minotr Frequency-dependent properties file   721 does not exist.
 End of Minotr Frequency-dependent properties file   722 does not exist.
 Leave Link 1002 at Tue Nov 26 11:56:54 2019, MaxMem= 1073741824 cpu:       0.7
 (Enter /home/programs/G09_64/g09/l601.exe)
 Copying SCF densities to generalized density rwf, IOpCl= 1 IROHF=0.

 **********************************************************************

            Population analysis using the SCF density.

 **********************************************************************

 Orbital symmetries:
 Alpha Orbitals:
       Occupied  (A') (A') (A') (A') (A') (A') (A') (A") (A') (A')
                 (A") (A') (A') (A")
       Virtual   (A') (A") (A') (A') (A') (A') (A") (A')
 Beta  Orbitals:
       Occupied  (A') (A') (A') (A') (A') (A') (A") (A') (A') (A")
                 (A') (A') (A")
       Virtual   (A') (A') (A") (A') (A') (A') (A') (A") (A')
 The electronic state is 2-A'.
 Alpha  occ. eigenvalues --  -20.26756 -11.08994 -11.04308  -1.29456  -0.96758
 Alpha  occ. eigenvalues --   -0.79694  -0.66733  -0.60531  -0.53588  -0.49352
 Alpha  occ. eigenvalues --   -0.49068  -0.45418  -0.38274  -0.36598
 Alpha virt. eigenvalues --    0.57813   0.64325   0.66154   0.69954   0.74328
 Alpha virt. eigenvalues --    0.76219   0.77548   0.77775
  Beta  occ. eigenvalues --  -20.25608 -11.09111 -11.04252  -1.24117  -0.96156
  Beta  occ. eigenvalues --   -0.79466  -0.60386  -0.59869  -0.51171  -0.48845
  Beta  occ. eigenvalues --   -0.47187  -0.39194  -0.34987
  Beta virt. eigenvalues --    0.21438   0.59623   0.64310   0.66349   0.70292
  Beta virt. eigenvalues --    0.75459   0.76710   0.77526   0.85867
          Condensed to atoms (all electrons):
              1          2          3          4          5          6
     1  H    0.616207   0.383858  -0.018847  -0.020948  -0.020948   0.000538
     2  C    0.383858   4.732701   0.356199   0.384639   0.384639  -0.017064
     3  C   -0.018847   0.356199   4.726444  -0.020571  -0.020571   0.253951
     4  H   -0.020948   0.384639  -0.020571   0.611851  -0.021561  -0.000551
     5  H   -0.020948   0.384639  -0.020571  -0.021561   0.611851  -0.000551
     6  O    0.000538  -0.017064   0.253951  -0.000551  -0.000551   7.872989
     7  H   -0.001730  -0.022379   0.376027   0.001792  -0.002355  -0.015347
     8  H   -0.001730  -0.022379   0.376027  -0.002355   0.001792  -0.015347
     9  H   -0.000055   0.001986  -0.031075   0.000006   0.000006   0.185990
    10  H    0.000001   0.000010   0.000305  -0.000002  -0.000002  -0.022519
              7          8          9         10
     1  H   -0.001730  -0.001730  -0.000055   0.000001
     2  C   -0.022379  -0.022379   0.001986   0.000010
     3  C    0.376027   0.376027  -0.031075   0.000305
     4  H    0.001792  -0.002355   0.000006  -0.000002
     5  H   -0.002355   0.001792   0.000006  -0.000002
     6  O   -0.015347  -0.015347   0.185990  -0.022519
     7  H    0.644643  -0.027898  -0.003076  -0.000232
     8  H   -0.027898   0.644643  -0.003076  -0.000232
     9  H   -0.003076  -0.003076   0.633058   0.095613
    10  H   -0.000232  -0.000232   0.095613   0.925656
 Mulliken atomic charges:
              1
     1  H    0.063655
     2  C   -0.182208
     3  C    0.002110
     4  H    0.067700
     5  H    0.067700
     6  O   -0.242090
     7  H    0.050554
     8  H    0.050554
     9  H    0.120622
    10  H    0.001402
 Sum of Mulliken atomic charges =   0.00000
 Mulliken charges with hydrogens summed into heavy atoms:
              1
     2  C    0.016847
     3  C    0.103219
     6  O   -0.120066
 Sum of Mulliken charges with hydrogens summed into heavy atoms =   0.00000
          Atomic-Atomic Spin Densities.
              1          2          3          4          5          6
     1  H    0.001442  -0.000812  -0.000027   0.000057   0.000057   0.000043
     2  C   -0.000812   0.019182   0.001855  -0.000110  -0.000110  -0.001992
     3  C   -0.000027   0.001855  -0.042550   0.000151   0.000151  -0.005583
     4  H    0.000057  -0.000110   0.000151  -0.001428   0.000037  -0.000046
     5  H    0.000057  -0.000110   0.000151   0.000037  -0.001428  -0.000046
     6  O    0.000043  -0.001992  -0.005583  -0.000046  -0.000046   0.441313
     7  H    0.000110  -0.000641   0.000628  -0.000004  -0.000017  -0.000731
     8  H    0.000110  -0.000641   0.000628  -0.000017  -0.000004  -0.000731
     9  H    0.000004  -0.000319   0.000621   0.000010   0.000010   0.034455
    10  H    0.000003  -0.000075   0.001054  -0.000001  -0.000001  -0.025104
              7          8          9         10
     1  H    0.000110   0.000110   0.000004   0.000003
     2  C   -0.000641  -0.000641  -0.000319  -0.000075
     3  C    0.000628   0.000628   0.000621   0.001054
     4  H   -0.000004  -0.000017   0.000010  -0.000001
     5  H   -0.000017  -0.000004   0.000010  -0.000001
     6  O   -0.000731  -0.000731   0.034455  -0.025104
     7  H    0.002808   0.000157   0.000850   0.000418
     8  H    0.000157   0.002808   0.000850   0.000418
     9  H    0.000850   0.000850  -0.251663  -0.013535
    10  H    0.000418   0.000418  -0.013535   0.845260
 Mulliken atomic spin densities:
              1
     1  H    0.000985
     2  C    0.016337
     3  C   -0.043073
     4  H   -0.001351
     5  H   -0.001351
     6  O    0.441578
     7  H    0.003577
     8  H    0.003577
     9  H   -0.228717
    10  H    0.808438
 Sum of Mulliken atomic spin densities =   1.00000
 APT atomic charges:
              1
     1  H   -0.002453
     2  C   -0.021196
     3  C    0.331463
     4  H    0.010357
     5  H    0.010357
     6  O   -0.025217
     7  H   -0.058004
     8  H   -0.058004
     9  H   -0.369649
    10  H    0.182346
 Sum of APT charges=   0.00000
 APT Atomic charges with hydrogens summed into heavy atoms:
              1
     1  H    0.000000
     2  C   -0.002934
     3  C    0.215454
     4  H    0.000000
     5  H    0.000000
     6  O   -0.212520
     7  H    0.000000
     8  H    0.000000
     9  H    0.000000
    10  H    0.000000
 Sum of APT charges=   0.00000
 Electronic spatial extent (au):  <R**2>=            228.8917
 Charge=              0.0000 electrons
 Dipole moment (field-independent basis, Debye):
    X=             -0.2195    Y=              1.2605    Z=              0.0000  Tot=              1.2795
 Quadrupole moment (field-independent basis, Debye-Ang):
   XX=            -18.2759   YY=            -19.8606   ZZ=            -19.4148
   XY=              1.3675   XZ=              0.0000   YZ=              0.0000
 Traceless Quadrupole moment (field-independent basis, Debye-Ang):
   XX=              0.9079   YY=             -0.6769   ZZ=             -0.2310
   XY=              1.3675   XZ=              0.0000   YZ=              0.0000
 Octapole moment (field-independent basis, Debye-Ang**2):
  XXX=              8.8574  YYY=             -2.4060  ZZZ=              0.0000  XYY=              0.8462
  XXY=              1.1247  XXZ=              0.0000  XZZ=              1.2859  YZZ=             -0.9525
  YYZ=              0.0000  XYZ=              0.0000
 Hexadecapole moment (field-independent basis, Debye-Ang**3):
 XXXX=           -186.2356 YYYY=            -52.9709 ZZZZ=            -27.9406 XXXY=             -6.4551
 XXXZ=              0.0000 YYYX=             -6.6581 YYYZ=              0.0000 ZZZX=              0.0000
 ZZZY=              0.0000 XXYY=            -41.1740 XXZZ=            -37.8865 YYZZ=            -12.3539
 XXYZ=              0.0000 YYXZ=              0.0000 ZZXY=             -1.3387
 N-N= 8.566313322607D+01 E-N=-7.901889211311D+02  KE= 2.265838142420D+02
 Symmetry A'   KE= 2.131454045029D+02
 Symmetry A"   KE= 1.343840973912D+01
  Exact polarizability:  26.935   4.314  14.275   0.000   0.000  10.938
 Approx polarizability:  15.427   2.160  12.524   0.000   0.000   8.978
                          Isotropic Fermi Contact Couplings
        Atom                 a.u.       MegaHertz       Gauss      10(-4) cm-1
     1  H(1)               0.00055       2.46368       0.87910       0.82179
     2  C(13)              0.00971      10.91638       3.89524       3.64131
     3  C(13)             -0.01713     -19.25764      -6.87160      -6.42366
     4  H(1)              -0.00054      -2.39519      -0.85466      -0.79895
     5  H(1)              -0.00054      -2.39519      -0.85466      -0.79895
     6  O(17)             -0.04687      28.41403      10.13883       9.47790
     7  H(1)               0.00109       4.87498       1.73952       1.62612
     8  H(1)               0.00109       4.87498       1.73952       1.62612
     9  H(1)              -0.09465    -423.08933    -150.96879    -141.12741
    10  H(1)               0.33000    1475.07052     526.34182     492.03056
 --------------------------------------------------------
       Center         ----  Spin Dipole Couplings  ----
                      3XX-RR        3YY-RR        3ZZ-RR
 --------------------------------------------------------
     1   Atom        0.003606     -0.000864     -0.002742
     2   Atom        0.018287     -0.007936     -0.010351
     3   Atom        0.005903      0.000474     -0.006377
     4   Atom        0.005452     -0.003453     -0.001999
     5   Atom        0.005452     -0.003453     -0.001999
     6   Atom        0.397520      0.250395     -0.647915
     7   Atom        0.005723      0.001475     -0.007197
     8   Atom        0.005723      0.001475     -0.007197
     9   Atom        0.164680     -0.013271     -0.151408
    10   Atom       -0.015039     -0.002606      0.017645
 --------------------------------------------------------
                        XY            XZ            YZ
 --------------------------------------------------------
     1   Atom       -0.002004      0.000000      0.000000
     2   Atom        0.005986      0.000000      0.000000
     3   Atom       -0.009243      0.000000      0.000000
     4   Atom        0.001785     -0.003573     -0.001589
     5   Atom        0.001785      0.003573      0.001589
     6   Atom        0.893832      0.000000      0.000000
     7   Atom       -0.005721      0.006212     -0.002981
     8   Atom       -0.005721     -0.006212      0.002981
     9   Atom        0.207491      0.000000      0.000000
    10   Atom       -0.025819      0.000000      0.000000
 --------------------------------------------------------


 ---------------------------------------------------------------------------------
              Anisotropic Spin Dipole Couplings in Principal Axis System
 ---------------------------------------------------------------------------------

       Atom             a.u.   MegaHertz   Gauss  10(-4) cm-1        Axes

              Baa    -0.0027    -1.463    -0.522    -0.488  0.0000  0.0000  1.0000
     1 H(1)   Bbb    -0.0016    -0.870    -0.311    -0.290  0.3575  0.9339  0.0000
              Bcc     0.0044     2.333     0.833     0.778  0.9339 -0.3575  0.0000
 
              Baa    -0.0104    -1.389    -0.496    -0.463  0.0000  0.0000  1.0000
     2 C(13)  Bbb    -0.0092    -1.240    -0.442    -0.413 -0.2125  0.9772  0.0000
              Bcc     0.0196     2.629     0.938     0.877  0.9772  0.2125  0.0000
 
              Baa    -0.0064    -0.865    -0.309    -0.288  0.5993  0.8006  0.0000
     3 C(13)  Bbb    -0.0064    -0.856    -0.305    -0.285  0.0000  0.0000  1.0000
              Bcc     0.0128     1.721     0.614     0.574  0.8006 -0.5993  0.0000
 
              Baa    -0.0045    -2.405    -0.858    -0.802  0.0775  0.7885  0.6101
     4 H(1)   Bbb    -0.0029    -1.522    -0.543    -0.508  0.4239 -0.5800  0.6956
              Bcc     0.0074     3.926     1.401     1.310  0.9024  0.2047 -0.3792
 
              Baa    -0.0045    -2.405    -0.858    -0.802  0.0775  0.7885 -0.6101
     5 H(1)   Bbb    -0.0029    -1.522    -0.543    -0.508 -0.4239  0.5800  0.6956
              Bcc     0.0074     3.926     1.401     1.310  0.9024  0.2047  0.3792
 
              Baa    -0.6479    46.883    16.729    15.638  0.0000  0.0000  1.0000
     6 O(17)  Bbb    -0.5729    41.454    14.792    13.828 -0.6775  0.7355  0.0000
              Bcc     1.2208   -88.337   -31.521   -29.466  0.7355  0.6775  0.0000
 
              Baa    -0.0097    -5.199    -1.855    -1.734 -0.3493  0.0701  0.9344
     7 H(1)   Bbb    -0.0024    -1.261    -0.450    -0.421  0.5069  0.8528  0.1255
              Bcc     0.0121     6.460     2.305     2.155  0.7881 -0.5175  0.3335
 
              Baa    -0.0097    -5.199    -1.855    -1.734  0.3493 -0.0701  0.9344
     8 H(1)   Bbb    -0.0024    -1.261    -0.450    -0.421  0.5069  0.8528 -0.1255
              Bcc     0.0121     6.460     2.305     2.155  0.7881 -0.5175 -0.3335
 
              Baa    -0.1514   -80.784   -28.826   -26.947  0.0000  0.0000  1.0000
     9 H(1)   Bbb    -0.1501   -80.065   -28.569   -26.707 -0.5504  0.8349  0.0000
              Bcc     0.3015   160.849    57.395    53.653  0.8349  0.5504  0.0000
 
              Baa    -0.0354   -18.877    -6.736    -6.297  0.7855  0.6188  0.0000
    10 H(1)   Bbb     0.0176     9.414     3.359     3.140  0.0000  0.0000  1.0000
              Bcc     0.0177     9.462     3.376     3.156 -0.6188  0.7855  0.0000
 

 ---------------------------------------------------------------------------------

 No NMR shielding tensors so no spin-rotation constants.
 Leave Link  601 at Tue Nov 26 11:56:54 2019, MaxMem= 1073741824 cpu:       1.5
 (Enter /home/programs/G09_64/g09/l701.exe)
 Compute integral second derivatives.
 ... and contract with generalized density number  0.
 Leave Link  701 at Tue Nov 26 11:56:54 2019, MaxMem= 1073741824 cpu:       0.9
 (Enter /home/programs/G09_64/g09/l702.exe)
 L702 exits ... SP integral derivatives will be done elsewhere.
 Leave Link  702 at Tue Nov 26 11:56:54 2019, MaxMem= 1073741824 cpu:       0.2
 (Enter /home/programs/G09_64/g09/l703.exe)
 Compute integral second derivatives, UseDBF=F ICtDFT=           0.
 Integral derivatives from FoFDir, PRISM(SPDF).
 Calling FoFJK, ICntrl=    100127 FMM=F ISym2X=1 I1Cent= 0 IOpClX= 1 NMat=1 NMatS=1 NMatT=0.
 FoFCou: FMM=F IPFlag=           0 FMFlag=      100000 FMFlg1=         800
         NFxFlg=           0 DoJE=F BraDBF=F KetDBF=F FulRan=T
         Omega=  0.000000  0.000000  1.000000  0.000000  0.000000 ICntrl=  100127 IOpCl=  1
         NMat0=    1 NMatS0=    1 NMatT0=    0 NMatD0=    1 NMtDS0=    0 NMtDT0=    0
         I1Cent=           0 NGrid=           0.
 Petite list used in FoFCou.
 Leave Link  703 at Tue Nov 26 11:56:54 2019, MaxMem= 1073741824 cpu:       1.2
 (Enter /home/programs/G09_64/g09/l716.exe)
 Dipole        =-8.63738181D-02 4.95921817D-01-4.44089217D-16
 Polarizability= 2.69352110D+01 4.31372717D+00 1.42753471D+01
                 3.43141207D-08 1.15426730D-08 1.09375345D+01
 HyperPolar    = 1.46002143D+02 7.87119316D+01 2.96832960D+01
                 2.08570634D+01 4.11704543D-06 1.29424736D-06
                 1.36925413D-06-2.68384165D+00-2.68748295D-01
                -7.81346384D-07
 Full mass-weighted force constant matrix:
 Low frequencies ----2525.9663   -0.5504   -0.0011   -0.0005    0.0014    0.3401
 Low frequencies ---    2.3832  151.7878  226.7190
 ******    1 imaginary frequencies (negative Signs) ****** 
 Harmonic frequencies (cm**-1), IR intensities (KM/Mole), Raman scattering
 activities (A**4/AMU), depolarization ratios for plane and unpolarized
 incident light, reduced masses (AMU), force constants (mDyne/A),
 and normal coordinates:
                     1                      2                      3
                    A'                     A"                     A"
 Frequencies -- -2525.9663               151.7878               226.7190
 Red. masses --     1.0104                 1.2136                 1.1236
 Frc consts  --     3.7984                 0.0165                 0.0340
 IR Inten    --  2117.3096                 6.1613                 0.2561
  Atom  AN      X      Y      Z        X      Y      Z        X      Y      Z
     1   1     0.01   0.00   0.00     0.00   0.00   0.02     0.00   0.00   0.59
     2   6     0.00   0.00   0.00     0.00   0.00   0.07     0.00   0.00   0.01
     3   6    -0.01   0.01   0.00     0.00   0.00  -0.07     0.00   0.00  -0.08
     4   1     0.00   0.00   0.00     0.04   0.10   0.15     0.29  -0.38  -0.24
     5   1     0.00   0.00   0.00    -0.04  -0.10   0.15    -0.29   0.38  -0.24
     6   8    -0.01  -0.01   0.00     0.00   0.00  -0.08     0.00   0.00   0.06
     7   1     0.01  -0.01   0.00    -0.05  -0.04  -0.11     0.01  -0.09  -0.15
     8   1     0.01  -0.01   0.00     0.05   0.04  -0.11    -0.01   0.09  -0.15
     9   1     0.65   0.44   0.00     0.00   0.00   0.33     0.00   0.00   0.06
    10   1    -0.50  -0.37   0.00     0.00   0.00   0.88     0.00   0.00   0.07
                     4                      5                      6
                    A'                     A'                     A"
 Frequencies --   348.8139               483.6740               888.0923
 Red. masses --     1.3412                 2.0100                 1.0248
 Frc consts  --     0.0961                 0.2770                 0.4762
 IR Inten    --     1.3262                 2.2075                35.8513
  Atom  AN      X      Y      Z        X      Y      Z        X      Y      Z
     1   1     0.06   0.21   0.00    -0.01  -0.22   0.00     0.00   0.00   0.05
     2   6    -0.07   0.07   0.00     0.16  -0.02   0.00     0.00   0.00   0.00
     3   6     0.02  -0.10   0.00     0.05   0.12   0.00     0.00   0.00  -0.03
     4   1    -0.18   0.09   0.00     0.33  -0.05  -0.01     0.09   0.06   0.05
     5   1    -0.18   0.09   0.00     0.33  -0.05   0.01    -0.09  -0.06   0.05
     6   8     0.08  -0.05   0.00    -0.17  -0.08   0.00     0.00   0.00  -0.02
     7   1     0.04  -0.09   0.01     0.11   0.10  -0.01     0.05   0.12   0.06
     8   1     0.04  -0.09  -0.01     0.11   0.10   0.01    -0.05  -0.12   0.06
     9   1    -0.02   0.12   0.00    -0.11  -0.21   0.00     0.00   0.00   0.88
    10   1    -0.50   0.75   0.00    -0.59   0.45   0.00     0.00   0.00  -0.39
                     7                      8                      9
                    A"                     A'                     A'
 Frequencies --   958.5625              1076.2571              1237.7268
 Red. masses --     1.0968                 1.9165                 2.0115
 Frc consts  --     0.5938                 1.3079                 1.8156
 IR Inten    --     1.7619                 0.4208                 2.4142
  Atom  AN      X      Y      Z        X      Y      Z        X      Y      Z
     1   1     0.00   0.00   0.17     0.65   0.50   0.00    -0.26  -0.22   0.00
     2   6     0.00   0.00  -0.04     0.19  -0.01   0.00     0.08   0.18   0.00
     3   6     0.00   0.00  -0.07    -0.04  -0.14   0.00    -0.19  -0.10   0.00
     4   1     0.35   0.24   0.17    -0.15   0.11   0.04     0.52   0.09  -0.03
     5   1    -0.35  -0.24   0.17    -0.15   0.11  -0.04     0.52   0.09   0.03
     6   8     0.00   0.00   0.03    -0.10   0.08   0.00     0.05  -0.06   0.00
     7   1     0.24   0.36   0.22    -0.23  -0.13   0.00    -0.16  -0.13   0.00
     8   1    -0.24  -0.36   0.22    -0.23  -0.13   0.00    -0.16  -0.13   0.00
     9   1     0.00   0.00  -0.26    -0.14   0.10   0.00    -0.15   0.34   0.00
    10   1     0.00   0.00   0.10    -0.04  -0.08   0.00     0.11  -0.03   0.00
                    10                     11                     12
                    A"                     A'                     A"
 Frequencies --  1342.4485              1344.0692              1506.4023
 Red. masses --     1.3749                 1.9031                 1.1548
 Frc consts  --     1.4599                 2.0256                 1.5440
 IR Inten    --    10.5450                 1.1752                 0.1614
  Atom  AN      X      Y      Z        X      Y      Z        X      Y      Z
     1   1     0.00   0.00   0.16     0.24   0.19   0.00     0.00   0.00  -0.12
     2   6     0.00   0.00  -0.08     0.05  -0.03   0.00     0.00   0.00   0.10
     3   6     0.00   0.00   0.15    -0.13   0.16   0.00     0.00   0.00  -0.05
     4   1     0.27   0.19   0.08    -0.14   0.05   0.04    -0.25  -0.19  -0.06
     5   1    -0.27  -0.19   0.08    -0.14   0.05  -0.04     0.25   0.19  -0.06
     6   8     0.00   0.00  -0.05     0.10  -0.13   0.00     0.00   0.00  -0.02
     7   1     0.36  -0.46  -0.15    -0.51   0.20   0.00     0.62   0.02   0.01
     8   1    -0.36   0.46  -0.15    -0.51   0.20   0.00    -0.62  -0.02   0.01
     9   1     0.00   0.00   0.02     0.27  -0.33   0.00     0.00   0.00  -0.01
    10   1     0.00   0.00  -0.01     0.03   0.10   0.00     0.00   0.00   0.00
                    13                     14                     15
                    A'                     A'                     A'
 Frequencies --  1564.5634              1697.0356              1753.3175
 Red. masses --     1.3416                 1.2421                 1.4532
 Frc consts  --     1.9350                 2.1075                 2.6321
 IR Inten    --    30.9912                16.7888                15.4653
  Atom  AN      X      Y      Z        X      Y      Z        X      Y      Z
     1   1    -0.20  -0.12   0.00    -0.31  -0.37   0.00     0.21   0.34   0.00
     2   6    -0.03   0.06   0.00     0.08   0.06   0.00    -0.13  -0.04   0.00
     3   6     0.09  -0.09   0.00     0.10   0.00   0.00     0.14   0.02   0.00
     4   1     0.14  -0.04  -0.05    -0.37  -0.12  -0.17     0.38  -0.01   0.08
     5   1     0.14  -0.04   0.05    -0.37  -0.12   0.17     0.38  -0.01  -0.08
     6   8    -0.01   0.08   0.00    -0.01  -0.03   0.00    -0.01  -0.04   0.00
     7   1    -0.36  -0.07  -0.02    -0.32   0.03  -0.01    -0.35   0.12   0.03
     8   1    -0.36  -0.07   0.02    -0.32   0.03   0.01    -0.35   0.12  -0.03
     9   1     0.35  -0.67   0.00    -0.25   0.35   0.00    -0.28   0.39   0.00
    10   1    -0.18  -0.01   0.00     0.00  -0.05   0.00     0.00  -0.05   0.00
                    16                     17                     18
                    A"                     A'                     A'
 Frequencies --  1819.6167              1823.4693              1844.2125
 Red. masses --     1.0462                 1.0669                 1.0909
 Frc consts  --     2.0410                 2.0901                 2.1859
 IR Inten    --     1.2550                 3.6076                12.0243
  Atom  AN      X      Y      Z        X      Y      Z        X      Y      Z
     1   1     0.00   0.00   0.73    -0.14  -0.20   0.00     0.13   0.19   0.00
     2   6     0.00   0.00  -0.06     0.00  -0.05   0.00    -0.02   0.03   0.00
     3   6     0.00   0.00  -0.01     0.03   0.04   0.00     0.00   0.08   0.00
     4   1    -0.43   0.21   0.05    -0.03   0.43   0.34     0.04  -0.30  -0.23
     5   1     0.43  -0.21   0.05    -0.03   0.43  -0.34     0.04  -0.30   0.23
     6   8     0.00   0.00   0.00    -0.01   0.00   0.00    -0.01  -0.01   0.00
     7   1     0.01   0.02   0.00    -0.08  -0.30  -0.25    -0.01  -0.42  -0.36
     8   1    -0.01  -0.02   0.00    -0.08  -0.30   0.25    -0.01  -0.42   0.36
     9   1     0.00   0.00   0.00     0.01   0.05   0.00     0.08   0.05   0.00
    10   1     0.00   0.00   0.00     0.05   0.03   0.00     0.12   0.09   0.00
                    19                     20                     21
                    A'                     A'                     A'
 Frequencies --  1974.7393              3547.0170              3574.0957
 Red. masses --     1.1574                 1.0639                 1.0394
 Frc consts  --     2.6592                 7.8866                 7.8225
 IR Inten    --   170.9950                 7.2766                 0.5508
  Atom  AN      X      Y      Z        X      Y      Z        X      Y      Z
     1   1     0.03   0.03   0.00    -0.02   0.03   0.00    -0.43   0.39   0.00
     2   6     0.00   0.00   0.00     0.00   0.00   0.00     0.05   0.02   0.00
     3   6    -0.02   0.04   0.00     0.01   0.07   0.00     0.00   0.00   0.00
     4   1     0.00  -0.02  -0.01    -0.01  -0.01   0.01    -0.04  -0.33   0.47
     5   1     0.00  -0.02   0.01    -0.01  -0.01  -0.01    -0.04  -0.33  -0.47
     6   8     0.09   0.03   0.00     0.00   0.00   0.00     0.00   0.00   0.00
     7   1     0.03  -0.08  -0.09    -0.04  -0.41   0.57     0.00   0.01  -0.02
     8   1     0.03  -0.08   0.09    -0.04  -0.41  -0.57     0.00   0.01   0.02
     9   1    -0.58  -0.22   0.00    -0.01  -0.01   0.00     0.00   0.00   0.00
    10   1    -0.60  -0.47   0.00     0.00   0.00   0.00     0.00   0.00   0.00
                    22                     23                     24
                    A"                     A'                     A"
 Frequencies --  3659.1198              3758.7030              3760.7709
 Red. masses --     1.1103                 1.1094                 1.1094
 Frc consts  --     8.7587                 9.2346                 9.2449
 IR Inten    --    11.6115                 0.5645                 0.7823
  Atom  AN      X      Y      Z        X      Y      Z        X      Y      Z
     1   1     0.00   0.00   0.00     0.60  -0.54   0.00     0.00   0.00   0.00
     2   6     0.00   0.00  -0.01    -0.04   0.08   0.00     0.00   0.00   0.10
     3   6     0.00   0.00   0.10     0.00   0.00   0.00     0.00   0.00   0.01
     4   1     0.00  -0.02   0.03    -0.03  -0.23   0.34     0.06   0.41  -0.57
     5   1     0.00   0.02   0.03    -0.03  -0.23  -0.34    -0.06  -0.41  -0.57
     6   8     0.00   0.00   0.00     0.00   0.00   0.00     0.00   0.00   0.00
     7   1     0.05   0.41  -0.57     0.00  -0.01   0.01     0.01   0.03  -0.03
     8   1    -0.05  -0.41  -0.57     0.00  -0.01  -0.01    -0.01  -0.03  -0.03
     9   1     0.00   0.00   0.00     0.00   0.00   0.00     0.00   0.00   0.00
    10   1     0.00   0.00   0.00     0.00   0.00   0.00     0.00   0.00   0.00

 -------------------
 - Thermochemistry -
 -------------------
 Temperature   298.150 Kelvin.  Pressure   1.00000 Atm.
 Atom     1 has atomic number  1 and mass   1.00783
 Atom     2 has atomic number  6 and mass  12.00000
 Atom     3 has atomic number  6 and mass  12.00000
 Atom     4 has atomic number  1 and mass   1.00783
 Atom     5 has atomic number  1 and mass   1.00783
 Atom     6 has atomic number  8 and mass  15.99491
 Atom     7 has atomic number  1 and mass   1.00783
 Atom     8 has atomic number  1 and mass   1.00783
 Atom     9 has atomic number  1 and mass   1.00783
 Atom    10 has atomic number  1 and mass   1.00783
 Molecular mass:    47.04969 amu.
 Principal axes and moments of inertia in atomic units:
                           1         2         3
     Eigenvalues --    55.17539 226.26822 259.00575
           X            0.99993   0.01196   0.00000
           Y           -0.01196   0.99993   0.00000
           Z            0.00000   0.00000   1.00000
 This molecule is an asymmetric top.
 Rotational symmetry number  1.
 Rotational temperatures (Kelvin)      1.56979     0.38279     0.33441
 Rotational constants (GHZ):          32.70917     7.97611     6.96796
    1 imaginary frequencies ignored.
 Zero-point vibrational energy     241294.0 (Joules/Mol)
                                   57.67066 (Kcal/Mol)
 Warning -- explicit consideration of   4 degrees of freedom as
           vibrations may cause significant error
 Vibrational temperatures:    218.39   326.20   501.86   695.90  1277.77
          (Kelvin)           1379.16  1548.49  1780.81  1931.48  1933.81
                             2167.37  2251.05  2441.65  2522.63  2618.02
                             2623.56  2653.41  2841.21  5103.36  5142.32
                             5264.65  5407.93  5410.90
 
 Zero-point correction=                           0.091904 (Hartree/Particle)
 Thermal correction to Energy=                    0.096673
 Thermal correction to Enthalpy=                  0.097617
 Thermal correction to Gibbs Free Energy=         0.065110
 Sum of electronic and zero-point Energies=           -152.493667
 Sum of electronic and thermal Energies=              -152.488898
 Sum of electronic and thermal Enthalpies=            -152.487954
 Sum of electronic and thermal Free Energies=         -152.520461
 
                     E (Thermal)             CV                S
                      KCal/Mol        Cal/Mol-Kelvin    Cal/Mol-Kelvin
 Total                   60.663             14.488             68.417
 Electronic               0.000              0.000              1.377
 Translational            0.889              2.981             37.471
 Rotational               0.889              2.981             22.696
 Vibrational             58.886              8.527              6.872
 Vibration     1          0.619              1.901              2.650
 Vibration     2          0.650              1.800              1.905
 Vibration     3          0.726              1.578              1.172
 Vibration     4          0.840              1.286              0.700
                       Q            Log10(Q)             Ln(Q)
 Total Bot       0.112584D-29        -29.948522        -68.959020
 Total V=0       0.211016D+13         12.324315         28.377785
 Vib (Bot)       0.218008D-41        -41.661528        -95.929213
 Vib (Bot)    1  0.133518D+01          0.125539          0.289065
 Vib (Bot)    2  0.869973D+00         -0.060494         -0.139293
 Vib (Bot)    3  0.529341D+00         -0.276265         -0.636123
 Vib (Bot)    4  0.344692D+00         -0.462568         -1.065103
 Vib (V=0)       0.408610D+01          0.611309          1.407592
 Vib (V=0)    1  0.192573D+01          0.284595          0.655304
 Vib (V=0)    2  0.150342D+01          0.177080          0.407743
 Vib (V=0)    3  0.122815D+01          0.089251          0.205509
 Vib (V=0)    4  0.110730D+01          0.044265          0.101924
 Electronic      0.200000D+01          0.301030          0.693147
 Translational   0.126850D+08          7.103290         16.355930
 Rotational      0.203557D+05          4.308686          9.921115
 
                                                      --Frequency calculation--
                                                             IR Spectrum
 
     33  3  33                                                    1  111 1 1    1 1   11   1    1                                    
     77  6  55                                                    9  888 7 6    5 5   33   2    0   9  8            4    3   2 1     
     65  5  74                                                    7  422 5 9    6 0   44   3    7   5  8            8    4   2 5     
     19  9  47                                                    5  430 3 7    5 6   42   8    6   9  8            4    9   7 2     
 
     XX  X  XX                                                    X  XXX X X    X X   XX   X    X   X  X            X    X   X X     
                                                                  X      X X    X                      X                             
                                                                  X             X                      X                             
                                                                  X             X                      X                             
                                                                  X                                                                  
                                                                  X                                                                  
                                                                  X                                                                  
                                                                  X                                                                  
                                                                  X                                                                  
                                                                  X                                                                  
                                                                  X                                                                  
                                                                  X                                                                  
                                                                  X                                                                  
                                                                  X                                                                  
                                                                  X                                                                  
                                                                  X                                                                  
                                                                  X                                                                  
                                                                  X                                                                  
                                                                  X                                                                  
                                                                  X                                                                  
 
 ***** Axes restored to original set *****
 -------------------------------------------------------------------
 Center     Atomic                   Forces (Hartrees/Bohr)
 Number     Number              X              Y              Z
 -------------------------------------------------------------------
      1        1          -0.000000129    0.000000000    0.000000344
      2        6          -0.000003461    0.000000000    0.000000204
      3        6           0.000002700    0.000000000    0.000000086
      4        1           0.000000842   -0.000001558   -0.000000652
      5        1           0.000000842    0.000001558   -0.000000652
      6        8          -0.000000626    0.000000000   -0.000000516
      7        1          -0.000000477    0.000000988    0.000000465
      8        1          -0.000000477   -0.000000988    0.000000465
      9        1           0.000000340    0.000000000    0.000000166
     10        1           0.000000446    0.000000000    0.000000090
 -------------------------------------------------------------------
 Cartesian Forces:  Max     0.000003461 RMS     0.000001007
 -----------------------------------------------------------------------------------------------
                       Internal Coordinate Forces (Hartree/Bohr or radian)
  Cent   Atom   N1       Length/X         N2         Alpha/Y        N3         Beta/Z          J
 -----------------------------------------------------------------------------------------------
      1  H 
      2  C        1   0.000000(     1)
      3  C        2   0.000002(     2)      1   0.000000(    10)
      4  H        2  -0.000002(     3)      1   0.000000(    11)      3   0.000000(    18)     0
      5  H        2  -0.000002(     4)      1   0.000000(    12)      3   0.000000(    19)     0
      6  O        3   0.000000(     5)      2   0.000000(    13)      1   0.000000(    20)     0
      7  H        3  -0.000001(     6)      2   0.000000(    14)      6   0.000000(    21)     0
      8  H        3  -0.000001(     7)      2   0.000000(    15)      6   0.000000(    22)     0
      9  H        6   0.000001(     8)      3   0.000000(    16)      2   0.000000(    23)     0
     10  H        9   0.000000(     9)      6   0.000000(    17)      3   0.000000(    24)     0
 -----------------------------------------------------------------------------------------------
 Internal  Forces:  Max     0.000002049 RMS     0.000000804
 Force constants in Cartesian coordinates: 
                1             2             3             4             5 
      1  0.715261D-01
      2  0.000000D+00  0.686266D-01
      3 -0.167419D-02  0.000000D+00  0.481775D+00
      4 -0.741544D-01  0.000000D+00  0.446812D-02  0.733412D+00
      5  0.000000D+00 -0.795977D-01  0.000000D+00  0.000000D+00  0.863242D+00
      6  0.277785D-02  0.000000D+00 -0.464332D+00 -0.488620D-01  0.000000D+00
      7  0.496226D-02  0.000000D+00  0.440453D-02 -0.298191D+00  0.000000D+00
      8  0.000000D+00 -0.771403D-03  0.000000D+00  0.000000D+00 -0.125496D+00
      9 -0.453981D-01  0.000000D+00 -0.856380D-02 -0.534232D-01  0.000000D+00
     10  0.140622D-02 -0.295854D-02 -0.321408D-02 -0.165186D+00  0.151648D+00
     11 -0.387192D-02  0.523813D-02  0.633544D-02  0.150435D+00 -0.336939D+00
     12  0.223975D-01 -0.391348D-01 -0.579220D-02  0.621371D-01 -0.100865D+00
     13  0.140622D-02  0.295854D-02 -0.321408D-02 -0.165186D+00 -0.151648D+00
     14  0.387192D-02  0.523813D-02 -0.633544D-02 -0.150435D+00 -0.336939D+00
     15  0.223975D-01  0.391348D-01 -0.579220D-02  0.621371D-01  0.100865D+00
     16 -0.807300D-02  0.000000D+00 -0.121304D-02  0.104020D-02  0.000000D+00
     17  0.000000D+00  0.642567D-03  0.000000D+00  0.000000D+00  0.360297D-02
     18  0.261515D-03  0.000000D+00  0.136265D-02 -0.122464D-01  0.000000D+00
     19  0.201121D-02 -0.475941D-03  0.568887D-03 -0.179450D-01  0.357894D-01
     20 -0.244751D-04  0.167968D-03  0.217490D-03 -0.511758D-02  0.571810D-02
     21  0.957283D-03  0.172731D-03  0.904798D-03 -0.880795D-02  0.152382D-01
     22  0.201121D-02  0.475941D-03  0.568887D-03 -0.179450D-01 -0.357894D-01
     23  0.244751D-04  0.167968D-03 -0.217490D-03  0.511758D-02  0.571810D-02
     24  0.957283D-03 -0.172731D-03  0.904798D-03 -0.880795D-02 -0.152382D-01
     25 -0.199629D-02  0.000000D+00 -0.101116D-02  0.592885D-02  0.000000D+00
     26  0.000000D+00  0.259981D-03  0.000000D+00  0.000000D+00  0.729379D-03
     27 -0.286803D-02  0.000000D+00 -0.572263D-03  0.353952D-02  0.000000D+00
     28  0.900518D-03  0.000000D+00  0.316110D-03 -0.177388D-02  0.000000D+00
     29  0.000000D+00  0.276976D-04  0.000000D+00  0.000000D+00 -0.402112D-04
     30  0.191464D-03  0.000000D+00  0.105956D-03 -0.134353D-03  0.000000D+00
                6             7             8             9            10 
      6  0.849918D+00
      7 -0.545927D-01  0.769844D+00
      8  0.000000D+00  0.000000D+00  0.834780D+00
      9 -0.131570D+00 -0.530177D-01  0.000000D+00  0.761558D+00
     10  0.626789D-01 -0.183979D-01  0.364574D-01  0.157755D-01  0.168618D+00
     11 -0.102046D+00 -0.470262D-02  0.586246D-02  0.251546D-02 -0.161270D+00
     12 -0.119998D+00 -0.929769D-02  0.167288D-01  0.657193D-02 -0.637900D-01
     13  0.626789D-01 -0.183979D-01 -0.364574D-01  0.157755D-01  0.139718D-01
     14  0.102046D+00  0.470262D-02  0.586245D-02 -0.251546D-02 -0.211257D-01
     15 -0.119998D+00 -0.929769D-02 -0.167288D-01  0.657193D-02 -0.991722D-02
     16 -0.483259D-01 -0.118481D+00  0.000000D+00 -0.329877D-01  0.251680D-02
     17  0.000000D+00  0.000000D+00 -0.737947D-01  0.000000D+00 -0.104283D-02
     18 -0.185504D-01  0.668196D-01  0.000000D+00 -0.401039D+00  0.141958D-02
     19  0.130373D-01 -0.160531D+00  0.137623D+00  0.585521D-01 -0.637586D-02
     20  0.132184D-02  0.135178D+00 -0.322290D+00 -0.902743D-01 -0.152488D-02
     21  0.728009D-02  0.573134D-01 -0.960652D-01 -0.108951D+00 -0.394229D-02
     22  0.130373D-01 -0.160531D+00 -0.137623D+00  0.585521D-01  0.284714D-02
     23 -0.132184D-02 -0.135178D+00 -0.322290D+00  0.902743D-01 -0.109194D-03
     24  0.728009D-02  0.573134D-01  0.960652D-01 -0.108951D+00  0.456012D-03
     25 -0.451636D-02 -0.868204D-03  0.000000D+00  0.457493D-01  0.814673D-03
     26  0.000000D+00  0.000000D+00 -0.119891D-02  0.000000D+00 -0.514835D-04
     27 -0.106873D-01 -0.582132D-01  0.000000D+00 -0.130366D-01  0.612888D-03
     28  0.208649D-02  0.592170D-03  0.000000D+00 -0.957777D-02 -0.215665D-03
     29  0.000000D+00  0.000000D+00 -0.664199D-03  0.000000D+00 -0.222829D-04
     30  0.658072D-03 -0.143191D-02  0.000000D+00 -0.259053D-02 -0.793414D-04
               11            12            13            14            15 
     11  0.343394D+00
     12  0.109207D+00  0.112258D+00
     13  0.211257D-01 -0.991722D-02  0.168618D+00
     14 -0.194185D-01  0.151676D-01  0.161270D+00  0.343394D+00
     15 -0.151676D-01  0.643205D-02 -0.637900D-01 -0.109207D+00  0.112258D+00
     16  0.265046D-03  0.759120D-03  0.251680D-02 -0.265051D-03  0.759118D-03
     17  0.989632D-05 -0.199649D-03  0.104283D-02  0.990076D-05  0.199649D-03
     18  0.827538D-04  0.122996D-02  0.141958D-02 -0.827513D-04  0.122997D-02
     19 -0.161706D-02 -0.351165D-02  0.284714D-02 -0.860904D-04  0.792668D-03
     20  0.863222D-03 -0.720830D-03  0.109194D-03  0.958217D-03  0.155027D-03
     21 -0.105279D-02 -0.939524D-03  0.456012D-03 -0.295758D-03  0.473343D-04
     22  0.860904D-04  0.792668D-03 -0.637586D-02  0.161706D-02 -0.351165D-02
     23  0.958217D-03 -0.155027D-03  0.152488D-02  0.863222D-03  0.720830D-03
     24  0.295758D-03  0.473343D-04 -0.394229D-02  0.105279D-02 -0.939524D-03
     25 -0.706599D-03  0.594113D-03  0.814679D-03  0.706607D-03  0.594117D-03
     26  0.265885D-04 -0.105336D-04  0.514840D-04  0.265892D-04  0.105337D-04
     27 -0.222112D-03  0.252299D-03  0.612890D-03  0.222115D-03  0.252300D-03
     28  0.256179D-03 -0.163954D-03 -0.215668D-03 -0.256182D-03 -0.163955D-03
     29  0.451431D-05 -0.177835D-04  0.222825D-04  0.451348D-05  0.177834D-04
     30  0.519315D-04 -0.614430D-04 -0.793422D-04 -0.519325D-04 -0.614434D-04
               16            17            18            19            20 
     16  0.354875D+00
     17  0.000000D+00  0.608767D-01
     18  0.196057D-01  0.000000D+00  0.547638D+00
     19  0.303764D-02  0.496885D-03  0.555528D-03  0.161742D+00
     20 -0.119326D-02  0.907705D-02 -0.265602D-02 -0.148442D+00  0.326225D+00
     21  0.262301D-01 -0.355341D-01 -0.335961D-01 -0.621316D-01  0.104517D+00
     22  0.303765D-02 -0.496888D-03  0.555525D-03  0.132928D-01  0.216881D-01
     23  0.119326D-02  0.907705D-02  0.265601D-02 -0.216881D-01 -0.212759D-01
     24  0.262301D-01  0.355341D-01 -0.335961D-01 -0.781142D-02 -0.130020D-01
     25 -0.864464D-01  0.000000D+00 -0.311726D-01  0.242841D-02 -0.943914D-03
     26  0.000000D+00 -0.153428D-01  0.000000D+00 -0.140298D-02  0.455187D-03
     27  0.401318D-01  0.000000D+00 -0.595270D-01  0.177154D-03  0.200630D-03
     28 -0.154024D+00  0.000000D+00 -0.472181D-01 -0.506630D-03  0.270975D-03
     29  0.000000D+00  0.584136D-02  0.000000D+00 -0.197326D-03  0.100923D-03
     30 -0.311893D-01  0.000000D+00 -0.515165D-02 -0.229005D-03  0.241687D-03
               21            22            23            24            25 
     21  0.124800D+00
     22 -0.781142D-02  0.161742D+00
     23  0.130020D-01  0.148442D+00  0.326225D+00
     24  0.869463D-02 -0.621316D-01 -0.104517D+00  0.124800D+00
     25 -0.448521D-02  0.242840D-02  0.943906D-03 -0.448522D-02 -0.914992D-01
     26  0.903209D-04  0.140298D-02  0.455186D-03 -0.903209D-04  0.000000D+00
     27  0.122429D-02  0.177151D-03 -0.200633D-03  0.122429D-02 -0.391843D-01
     28  0.222178D-02 -0.506628D-03 -0.270972D-03  0.222178D-02  0.168395D+00
     29 -0.719271D-04  0.197326D-03  0.100924D-03  0.719274D-04  0.000000D+00
     30  0.535147D-03 -0.229004D-03 -0.241686D-03  0.535147D-03  0.379174D-01
               26            27            28            29            30 
     26  0.252754D-01
     27  0.000000D+00  0.802053D-01
     28  0.000000D+00  0.550142D-01 -0.126458D-01
     29 -0.106867D-01  0.000000D+00  0.000000D+00  0.531116D-02
     30  0.000000D+00  0.664666D-03 -0.473658D-02  0.000000D+00  0.536607D-02
 Force constants in internal coordinates: 
                1             2             3             4             5 
      1  0.481775D+00
      2 -0.140317D-02  0.402393D+00
      3 -0.484878D-02 -0.684483D-03  0.482608D+00
      4 -0.484878D-02 -0.684483D-03 -0.474499D-02  0.482608D+00
      5 -0.964899D-03  0.148703D-01 -0.519402D-03 -0.519407D-03  0.504718D+00
      6  0.212942D-03 -0.500543D-03 -0.920013D-03  0.106922D-03  0.131322D-01
      7  0.212943D-03 -0.500541D-03  0.106922D-03 -0.920013D-03  0.131322D-01
      8  0.796980D-03 -0.260154D-02 -0.592397D-03 -0.592402D-03 -0.223735D-01
      9 -0.330516D-03  0.480248D-03  0.267289D-03  0.267292D-03  0.309379D-02
     10  0.123881D-01  0.354214D-03 -0.580057D-02 -0.580056D-02  0.944879D-02
     11  0.159250D-01 -0.162773D-01  0.159724D-02 -0.842346D-02  0.334451D-02
     12  0.159250D-01 -0.162773D-01 -0.842345D-02  0.159725D-02  0.334452D-02
     13  0.467147D-02  0.378496D-01 -0.321155D-02 -0.321155D-02 -0.186235D-01
     14 -0.201379D-02  0.365479D-01  0.262904D-02 -0.224911D-02 -0.336333D-01
     15 -0.201379D-02  0.365479D-01 -0.224911D-02  0.262904D-02 -0.336333D-01
     16  0.424263D-03  0.479430D-02 -0.341149D-03 -0.341148D-03  0.556134D-01
     17 -0.908707D-04 -0.457869D-03  0.214037D-04  0.214048D-04  0.457899D-03
     18  0.982324D-03  0.267438D-01 -0.338918D-02 -0.125084D-01 -0.298231D-02
     19 -0.982322D-03 -0.267438D-01  0.125084D-01  0.338904D-02  0.298232D-02
     20  0.000000D+00  0.000000D+00  0.567322D-03 -0.567311D-03  0.000000D+00
     21  0.873605D-03  0.145227D-02  0.408790D-03 -0.145230D-02  0.493074D-01
     22 -0.873605D-03 -0.145226D-02  0.145230D-02 -0.408790D-03 -0.493074D-01
     23  0.000000D+00  0.000000D+00  0.119978D-03 -0.119976D-03  0.000000D+00
     24  0.000000D+00  0.000000D+00  0.162104D-05 -0.162088D-05  0.000000D+00
                6             7             8             9            10 
      6  0.458038D+00
      7 -0.351923D-02  0.458038D+00
      8  0.188518D-02  0.188517D-02  0.247551D+00
      9 -0.129763D-02 -0.129763D-02  0.166978D+00 -0.137642D-01
     10 -0.147181D-02 -0.147186D-02  0.556710D-02 -0.253314D-02  0.311425D+00
     11 -0.106116D-02  0.445920D-03  0.142247D-02 -0.560184D-03  0.563478D-01
     12  0.445921D-03 -0.106116D-02  0.142248D-02 -0.560189D-03  0.563478D-01
     13 -0.688033D-02 -0.688032D-02  0.118956D-01 -0.896815D-03  0.594889D-01
     14 -0.277091D-02 -0.119483D-01  0.112634D-02  0.155802D-02 -0.217502D-01
     15 -0.119483D-01 -0.277091D-02  0.112633D-02  0.155802D-02 -0.217502D-01
     16 -0.367618D-02 -0.367617D-02  0.909456D-02  0.684392D-02  0.102695D-01
     17 -0.511820D-03 -0.511819D-03  0.360904D-02 -0.211910D-02 -0.290503D-03
     18  0.191513D-02 -0.258635D-02 -0.724815D-03  0.116435D-03 -0.825250D-01
     19  0.258635D-02 -0.191513D-02  0.724817D-03 -0.116437D-03  0.825251D-01
     20 -0.252924D-03  0.252770D-03  0.000000D+00  0.000000D+00  0.000000D+00
     21 -0.282534D-02 -0.129415D-01  0.316887D-02 -0.357722D-02  0.136392D-02
     22  0.129414D-01  0.282521D-02 -0.316888D-02  0.357722D-02 -0.136393D-02
     23 -0.270601D-02  0.270601D-02  0.000000D+00  0.000000D+00  0.000000D+00
     24 -0.278842D-04  0.278843D-04  0.000000D+00  0.000000D+00  0.000000D+00
               11            12            13            14            15 
     11  0.290746D+00
     12  0.442214D-01  0.290746D+00
     13  0.938983D-02  0.938983D-02  0.411694D+00
     14 -0.178282D-01  0.480773D-02  0.790310D-01  0.324382D+00
     15  0.480773D-02 -0.178282D-01  0.790310D-01  0.567332D-01  0.324382D+00
     16  0.387440D-03  0.387440D-03  0.476581D-01  0.340971D-02  0.340971D-02
     17 -0.145695D-03 -0.145697D-03 -0.688158D-03 -0.151606D-04 -0.151597D-04
     18 -0.405944D-02  0.773600D-01 -0.129453D-01  0.296129D-01 -0.886840D-02
     19 -0.773600D-01  0.405944D-02  0.129453D-01  0.886840D-02 -0.296129D-01
     20 -0.305161D-02  0.305160D-02  0.000000D+00 -0.249019D-03  0.249061D-03
     21 -0.303332D-02  0.217490D-02 -0.880147D-01 -0.101483D-01  0.722807D-01
     22 -0.217490D-02  0.303332D-02  0.880147D-01 -0.722806D-01  0.101483D-01
     23 -0.282608D-03  0.282606D-03  0.000000D+00 -0.539599D-02  0.539600D-02
     24 -0.821658D-05  0.821644D-05  0.000000D+00 -0.644766D-04  0.644768D-04
               16            17            18            19            20 
     16  0.284167D+00
     17  0.992676D-02  0.280189D-01
     18 -0.963054D-03  0.122838D-03  0.273968D+00
     19  0.963054D-03 -0.122838D-03 -0.128562D+00  0.273968D+00
     20  0.000000D+00  0.000000D+00 -0.759626D-02 -0.759625D-02  0.186029D-01
     21 -0.684722D-02 -0.936110D-04 -0.324354D-02  0.326641D-03  0.639440D-02
     22  0.684722D-02  0.936117D-04  0.326640D-03 -0.324354D-02  0.639440D-02
     23  0.000000D+00  0.000000D+00  0.246363D-03  0.246364D-03 -0.988402D-03
     24  0.000000D+00  0.000000D+00  0.599734D-05  0.599736D-05 -0.267130D-05
               21            22            23            24 
     21  0.302217D+00
     22 -0.128112D+00  0.302217D+00
     23 -0.540884D-03 -0.540883D-03  0.144542D-01
     24  0.187417D-04  0.187418D-04  0.729573D-04  0.179752D-03
 Leave Link  716 at Tue Nov 26 11:56:54 2019, MaxMem= 1073741824 cpu:       0.2
 (Enter /home/programs/G09_64/g09/l103.exe)

 GradGradGradGradGradGradGradGradGradGradGradGradGradGradGradGradGradGrad
 Berny optimization.
 Search for a local minimum.
 Step number   1 out of a maximum of    2
 All quantities printed in internal units (Hartrees-Bohrs-Radians)
 Second derivative matrix not updated -- analytic derivatives used.
 ITU=  0
     Eigenvalues ---   -0.09587   0.00018   0.01392   0.01646   0.02770
     Eigenvalues ---    0.09760   0.12482   0.15099   0.19079   0.25598
     Eigenvalues ---    0.27282   0.32984   0.33967   0.35713   0.39282
     Eigenvalues ---    0.43566   0.46236   0.46727   0.47743   0.48801
     Eigenvalues ---    0.49609   0.51490   0.52683   0.61174
 Eigenvalue     1 is  -9.59D-02 should be greater than     0.000000 Eigenvector:
                         hh10       ho9      hho10      oc6      occ6
   1                    0.89712  -0.43900   0.02877  -0.02360   0.01845
                         dih8      dih7      cch3      hcc8      hcc7
   1                   -0.01504   0.01504   0.00905  -0.00781  -0.00781
 Angle between quadratic step and forces=  10.51 degrees.
 Linear search not attempted -- first point.
 Variable       Old X    -DE/DX   Delta X   Delta X   Delta X     New X
                                 (Linear)    (Quad)   (Total)
   occ6       1.88486   0.00000   0.00000   0.00000   0.00000   1.88486
   hcc7       1.91124   0.00000   0.00000   0.00000   0.00000   1.91124
   hcc8       1.91124   0.00000   0.00000   0.00000   0.00000   1.91124
   cc3        2.91520   0.00000   0.00000   0.00001   0.00001   2.91521
  hho10       3.05297   0.00000   0.00000   0.00000   0.00000   3.05297
   hh10       2.07864   0.00000   0.00000   0.00000   0.00000   2.07864
   dih5      -2.11151   0.00000   0.00000   0.00000   0.00000  -2.11151
   dih4       2.11151   0.00000   0.00000   0.00000   0.00000   2.11151
   dih7       2.11544   0.00000   0.00000   0.00000   0.00000   2.11544
   dih6       3.14159   0.00000   0.00000   0.00000   0.00000   3.14159
   dih8      -2.11544   0.00000   0.00000   0.00000   0.00000  -2.11544
   hoc9       1.81508   0.00000   0.00000   0.00000   0.00000   1.81508
   cch3       1.92110   0.00000   0.00000   0.00000   0.00000   1.92110
   hch5       1.89797   0.00000   0.00000   0.00000   0.00000   1.89797
   hch4       1.89797   0.00000   0.00000   0.00000   0.00000   1.89797
  dtor1       3.14159   0.00000   0.00000   0.00000   0.00000   3.14159
   hc7        2.07239   0.00000   0.00000   0.00000   0.00000   2.07238
   hc4        2.05162   0.00000   0.00000   0.00000   0.00000   2.05162
   hc5        2.05162   0.00000   0.00000   0.00000   0.00000   2.05162
   hc8        2.07239   0.00000   0.00000   0.00000   0.00000   2.07238
   ch2        2.05179   0.00000   0.00000   0.00000   0.00000   2.05179
  dih10       0.00000   0.00000   0.00000   0.00000   0.00000   0.00000
   ho9        2.01505   0.00000   0.00000   0.00000   0.00000   2.01506
   oc6        2.71867   0.00000   0.00000   0.00000   0.00000   2.71867
         Item               Value     Threshold  Converged?
 Maximum Force            0.000002     0.000450     YES
 RMS     Force            0.000001     0.000300     YES
 Maximum Displacement     0.000005     0.001800     YES
 RMS     Displacement     0.000002     0.001200     YES
 Predicted change in Energy=-1.734510D-11
 Optimization completed.
    -- Stationary point found.
                       ----------------------------
                       !   Optimized Parameters   !
                       ! (Angstroms and Degrees)  !
 ----------------------                            ----------------------
 !      Name          Value   Derivative information (Atomic Units)     !
 ------------------------------------------------------------------------
 !      occ6       107.9943   -DE/DX =    0.0                           !
 !      hcc7       109.506    -DE/DX =    0.0                           !
 !      hcc8       109.506    -DE/DX =    0.0                           !
 !       cc3         1.5427   -DE/DX =    0.0                           !
 !      hho10      174.9226   -DE/DX =    0.0                           !
 !      hh10         1.1      -DE/DX =    0.0                           !
 !      dih5      -120.9809   -DE/DX =    0.0                           !
 !      dih4       120.9809   -DE/DX =    0.0                           !
 !      dih7       121.2058   -DE/DX =    0.0                           !
 !      dih6       180.0      -DE/DX =    0.0                           !
 !      dih8      -121.2058   -DE/DX =    0.0                           !
 !      hoc9       103.9965   -DE/DX =    0.0                           !
 !      cch3       110.0712   -DE/DX =    0.0                           !
 !      hch5       108.7456   -DE/DX =    0.0                           !
 !      hch4       108.7456   -DE/DX =    0.0                           !
 !      dtor1      180.0      -DE/DX =    0.0                           !
 !       hc7         1.0967   -DE/DX =    0.0                           !
 !       hc4         1.0857   -DE/DX =    0.0                           !
 !       hc5         1.0857   -DE/DX =    0.0                           !
 !       hc8         1.0967   -DE/DX =    0.0                           !
 !       ch2         1.0858   -DE/DX =    0.0                           !
 !      dih10        0.0      -DE/DX =    0.0                           !
 !       ho9         1.0663   -DE/DX =    0.0                           !
 !       oc6         1.4387   -DE/DX =    0.0                           !
 ------------------------------------------------------------------------
 GradGradGradGradGradGradGradGradGradGradGradGradGradGradGradGradGradGrad

 Leave Link  103 at Tue Nov 26 11:56:54 2019, MaxMem= 1073741824 cpu:       0.1
 (Enter /home/programs/G09_64/g09/l9999.exe)

 Test job not archived.
 1\1\GINC-AF2CIQUS\Freq\UHF\STO-3G\C2H7O1(2)\DAVID\26-Nov-2019\1\\#p hf
  sto-3g scf=(incore,verytight) iop(99/9=1,99/14=3) freq=noraman\\--Fre
 quency calculation--\\0,2\H\C,1,ch2\C,2,cc3,1,cch3\H,2,hc4,1,hch4,3,di
 h4,0\H,2,hc5,1,hch5,3,dih5,0\O,3,oc6,2,occ6,1,dih6,0\H,3,hc7,2,hcc7,6,
 dih7,0\H,3,hc8,2,hcc8,6,dih8,0\H,6,ho9,3,hoc9,2,dtor1,0\H,9,hh10,6,hho
 10,3,dih10,0\\occ6=107.99434\hcc7=109.50603\hcc8=109.50603\cc3=1.54266
 \hho10=174.92255\hh10=1.09997\dih5=-120.98086\dih4=120.98087\dih7=121.
 20584\dih6=180.\dih8=-121.20583\hoc9=103.99651\cch3=110.07115\hch5=108
 .74559\hch4=108.74559\dtor1=180.\hc7=1.09666\hc4=1.08567\hc5=1.08567\h
 c8=1.09666\ch2=1.08576\dih10=0.\ho9=1.06632\oc6=1.43866\\Version=AM64L
 -G09RevB.01\State=2-A'\HF=-152.5855707\S2=0.788189\S2-1=0.\S2A=0.75006
 5\RMSD=6.307e-09\RMSF=1.007e-06\ZeroPoint=0.091904\Thermal=0.0966729\D
 ipole=0.2081368,-0.3939198,0.2343186\DipoleDeriv=0.0162186,-0.0241467,
 -0.0310063,-0.0074894,-0.032432,-0.0084315,-0.0310062,-0.0271842,0.008
 8538,0.007036,0.0228344,0.0447478,-0.0136013,-0.0882875,-0.0153122,0.0
 447478,0.0257067,0.0176648,0.2862597,0.063713,-0.0262905,0.1865221,0.4
 281143,0.2099849,-0.0262906,0.0717275,0.2800149,0.0181074,-0.0197956,-
 0.0090718,-0.0146685,0.0379306,0.0042513,0.0065213,0.0159131,-0.024965
 9,-0.0240681,0.0181367,0.0015124,0.0059516,0.0379306,-0.0140647,-0.014
 0807,-0.0177808,0.0172096,-0.0008939,0.1654273,0.462297,0.1375245,-0.1
 836707,0.1548238,0.462297,0.1862366,0.108914,-0.0095097,-0.0078031,0.0
 062208,-0.0407908,-0.0808269,-0.0659239,0.0201794,0.0248059,-0.0836767
 ,-0.0857369,0.0255531,0.0111264,-0.0606532,-0.0808269,-0.0482809,-0.00
 28322,-0.0048232,-0.0074495,-0.4252196,-0.4028381,-0.7089054,-0.276930
 8,-0.0901239,-0.3117662,-0.7089054,-0.4535115,-0.5936036,0.2178067,0.1
 589192,0.2493697,0.0841358,0.0521925,0.0947193,0.2493697,0.1789098,0.2
 770386\Polar=16.7613053,4.5122443,17.0681737,6.5563491,5.0798442,18.31
 86136\HyperPolar=45.3561332,29.2386329,19.0714653,-3.3871425,54.027082
 2,34.9746192,21.4704829,61.1754018,37.5460377,65.9051623\PG=CS [SG(C2H
 3O1),X(H4)]\NImag=1\\0.07152607,0.,0.06862661,-0.00167419,0.,0.4817746
 4,-0.07415440,0.,0.00446812,0.73341167,0.,-0.07959765,0.,0.,0.86324245
 ,0.00277785,0.,-0.46433238,-0.04886198,0.,0.84991839,0.00496226,0.,0.0
 0440453,-0.29819121,0.,-0.05459269,0.76984448,0.,-0.00077140,0.,0.,-0.
 12549607,0.,0.,0.83477958,-0.04539809,0.,-0.00856380,-0.05342324,0.,-0
 .13156986,-0.05301767,-0.00000001,0.76155801,0.00140622,-0.00295854,-0
 .00321408,-0.16518557,0.15164777,0.06267894,-0.01839793,0.03645737,0.0
 1577546,0.16861836,-0.00387192,0.00523813,0.00633544,0.15043535,-0.336
 93853,-0.10204617,-0.00470262,0.00586246,0.00251546,-0.16127020,0.3433
 9400,0.02239746,-0.03913481,-0.00579220,0.06213710,-0.10086511,-0.1199
 9832,-0.00929769,0.01672877,0.00657193,-0.06378996,0.10920735,0.112257
 90,0.00140622,0.00295854,-0.00321408,-0.16518557,-0.15164777,0.0626789
 5,-0.01839793,-0.03645738,0.01577546,0.01397183,0.02112573,-0.00991722
 ,0.16861836,0.00387192,0.00523813,-0.00633544,-0.15043535,-0.33693853,
 0.10204618,0.00470262,0.00586245,-0.00251546,-0.02112573,-0.01941850,0
 .01516762,0.16127020,0.34339400,0.02239746,0.03913481,-0.00579220,0.06
 213711,0.10086512,-0.11999832,-0.00929769,-0.01672877,0.00657193,-0.00
 991722,-0.01516762,0.00643205,-0.06378996,-0.10920736,0.11225791,-0.00
 807300,0.,-0.00121304,0.00104020,0.,-0.04832589,-0.11848102,0.,-0.0329
 8771,0.00251680,0.00026505,0.00075912,0.00251680,-0.00026505,0.0007591
 2,0.35487495,0.,0.00064257,0.,0.,0.00360297,0.,0.,-0.07379471,0.000000
 01,-0.00104283,0.00000990,-0.00019965,0.00104283,0.00000990,0.00019965
 ,0.,0.06087667,0.00026152,0.,0.00136265,-0.01224638,0.,-0.01855045,0.0
 6681960,0.00000001,-0.40103930,0.00141958,0.00008275,0.00122996,0.0014
 1958,-0.00008275,0.00122997,0.01960573,0.,0.54763796,0.00201121,-0.000
 47594,0.00056889,-0.01794504,0.03578936,0.01303734,-0.16053130,0.13762
 330,0.05855214,-0.00637586,-0.00161706,-0.00351165,0.00284714,-0.00008
 609,0.00079267,0.00303764,0.00049688,0.00055553,0.16174163,-0.00002448
 ,0.00016797,0.00021749,-0.00511758,0.00571810,0.00132184,0.13517782,-0
 .32228960,-0.09027433,-0.00152488,0.00086322,-0.00072083,0.00010919,0.
 00095822,0.00015503,-0.00119326,0.00907705,-0.00265602,-0.14844201,0.3
 2622485,0.00095728,0.00017273,0.00090480,-0.00880795,0.01523825,0.0072
 8009,0.05731337,-0.09606522,-0.10895091,-0.00394229,-0.00105279,-0.000
 93952,0.00045601,-0.00029576,0.00004733,0.02623007,-0.03553412,-0.0335
 9608,-0.06213164,0.10451651,0.12480023,0.00201121,0.00047594,0.0005688
 9,-0.01794504,-0.03578936,0.01303734,-0.16053131,-0.13762329,0.0585521
 5,0.00284714,0.00008609,0.00079267,-0.00637586,0.00161706,-0.00351165,
 0.00303765,-0.00049689,0.00055553,0.01329281,0.02168813,-0.00781142,0.
 16174163,0.00002448,0.00016797,-0.00021749,0.00511758,0.00571810,-0.00
 132184,-0.13517782,-0.32228959,0.09027434,-0.00010919,0.00095822,-0.00
 015503,0.00152488,0.00086322,0.00072083,0.00119326,0.00907705,0.002656
 01,-0.02168813,-0.02127592,0.01300201,0.14844201,0.32622484,0.00095728
 ,-0.00017273,0.00090480,-0.00880795,-0.01523825,0.00728009,0.05731338,
 0.09606523,-0.10895091,0.00045601,0.00029576,0.00004733,-0.00394229,0.
 00105279,-0.00093952,0.02623007,0.03553412,-0.03359608,-0.00781142,-0.
 01300201,0.00869463,-0.06213164,-0.10451652,0.12480023,-0.00199629,0.,
 -0.00101116,0.00592885,0.,-0.00451636,-0.00086820,0.,0.04574928,0.0008
 1467,-0.00070660,0.00059411,0.00081468,0.00070661,0.00059412,-0.086446
 43,0.,-0.03117262,0.00242841,-0.00094391,-0.00448521,0.00242840,0.0009
 4391,-0.00448522,-0.09149925,0.,0.00025998,0.,0.,0.00072938,0.,0.,-0.0
 0119891,0.,-0.00005148,0.00002659,-0.00001053,0.00005148,0.00002659,0.
 00001053,0.,-0.01534276,0.,-0.00140298,0.00045519,0.00009032,0.0014029
 8,0.00045519,-0.00009032,0.,0.02527544,-0.00286803,0.,-0.00057226,0.00
 353952,0.,-0.01068731,-0.05821324,0.,-0.01303656,0.00061289,-0.0002221
 1,0.00025230,0.00061289,0.00022211,0.00025230,0.04013184,0.,-0.0595269
 8,0.00017715,0.00020063,0.00122429,0.00017715,-0.00020063,0.00122429,-
 0.03918434,0.,0.08020526,0.00090052,0.,0.00031611,-0.00177388,0.,0.002
 08649,0.00059217,0.,-0.00957777,-0.00021567,0.00025618,-0.00016395,-0.
 00021567,-0.00025618,-0.00016396,-0.15402360,0.,-0.04721806,-0.0005066
 3,0.00027097,0.00222178,-0.00050663,-0.00027097,0.00222178,0.16839516,
 0.,0.05501416,-0.01264579,0.,0.00002770,0.,0.,-0.00004021,0.,0.,-0.000
 66420,0.,-0.00002228,0.00000451,-0.00001778,0.00002228,0.00000451,0.00
 001778,0.,0.00584136,0.,-0.00019733,0.00010092,-0.00007193,0.00019733,
 0.00010092,0.00007193,0.,-0.01068668,0.,0.,0.00531116,0.00019146,0.,0.
 00010596,-0.00013435,0.,0.00065807,-0.00143191,0.,-0.00259053,-0.00007
 934,0.00005193,-0.00006144,-0.00007934,-0.00005193,-0.00006144,-0.0311
 8931,0.,-0.00515165,-0.00022900,0.00024169,0.00053515,-0.00022900,-0.0
 0024169,0.00053515,0.03791739,0.,0.00066467,-0.00473658,0.,0.00536607\
 \0.00000013,0.,-0.00000034,0.00000346,0.,-0.00000020,-0.00000270,0.,-0
 .00000009,-0.00000084,0.00000156,0.00000065,-0.00000084,-0.00000156,0.
 00000065,0.00000063,0.,0.00000052,0.00000048,-0.00000099,-0.00000047,0
 .00000048,0.00000099,-0.00000047,-0.00000034,0.,-0.00000017,-0.0000004
 5,0.,-0.00000009\\\@


 THE SCIENTIFIC THEORIST IS NOT TO BE ENVIED. FOR NATURE, OR MORE
 PRECISELY EXPERIMENT, IS AN INEXORABLE AND NOT VERY FRIENDLY JUDGE OF HIS
 WORK.  IT NEVER SAYS "YES" TO A THEORY. IN THE MOST FAVORABLE CASES
 IT SAYS "MAYBE", AND IN THE GREAT MAJORITY OF CASES SIMPLY "NO"...
 PROBABLY EVERY THEORY WILL SOME DAY EXPERIENCE ITS "NO" - MOST
 THEORIES, SOON AFTER CONCEPTION.  -- A.EINSTEIN, NOV 11, 1922.
 Job cpu time:  0 days  0 hours  0 minutes 10.8 seconds.
 File lengths (MBytes):  RWF=      5 Int=      0 D2E=      0 Chk=      1 Scr=      1
 Normal termination of Gaussian 09 at Tue Nov 26 11:56:54 2019.
