
                                 *****************
                                 * O   R   C   A *
                                 *****************

           --- An Ab Initio, DFT and Semiempirical electronic structure package ---

                  #######################################################
                  #                        -***-                        #
                  #  Department of molecular theory and spectroscopy    #
                  #              Directorship: Frank Neese              #
                  # Max Planck Institute for Chemical Energy Conversion #
                  #                  D-45470 Muelheim/Ruhr              #
                  #                       Germany                       #
                  #                                                     #
                  #                  All rights reserved                #
                  #                        -***-                        #
                  #######################################################


                         Program Version 4.0.1.2 - RELEASE -


 With contributions from (in alphabetic order):
   Daniel Aravena         : Magnetic Properties
   Michael Atanasov       : Ab Initio Ligand Field Theory
   Ute Becker             : Parallelization
   Martin Brehm           : Molecular dynamics
   Dmytro Bykov           : SCF Hessian
   Vijay G. Chilkuri      : MRCI spin determinant printing
   Dipayan Datta          : RHF DLPNO-CCSD density
   Achintya Kumar Dutta   : EOM-CC, STEOM-CC
   Dmitry Ganyushin       : Spin-Orbit,Spin-Spin,Magnetic field MRCI
   Yang Guo               : DLPNO-NEVPT2, CIM, IAO-localization
   Andreas Hansen         : Spin unrestricted coupled pair/coupled cluster methods
   Lee Huntington         : MR-EOM, pCC
   Robert Izsak           : Overlap fitted RIJCOSX, COSX-SCS-MP3, EOM
   Christian Kollmar      : KDIIS, OOCD, Brueckner-CCSD(T), CCSD density
   Simone Kossmann        : Meta GGA functionals, TD-DFT gradient, OOMP2, MP2 Hessian
   Martin Krupicka        : AUTO-CI
   Dagmar Lenk            : GEPOL surface
   Dimitrios Liakos       : Extrapolation schemes; parallel MDCI
   Dimitrios Manganas     : ROCIS; embedding schemes
   Dimitrios Pantazis     : SARC Basis sets
   Taras Petrenko         : DFT Hessian,TD-DFT gradient, ASA, ECA, R-Raman, ABS, FL, XAS/XES, NRVS
   Peter Pinski           : DLPNO-MP2
   Christoph Reimann      : Effective Core Potentials
   Marius Retegan         : Local ZFS, SOC
   Christoph Riplinger    : Optimizer, TS searches, QM/MM, DLPNO-CCSD(T), (RO)-DLPNO pert. Triples
   Tobias Risthaus        : Range-separated hybrids, TD-DFT gradient, RPA, STAB
   Michael Roemelt        : Restricted open shell CIS
   Masaaki Saitow         : Open-shell DLPNO
   Barbara Sandhoefer     : DKH picture change effects
   Kantharuban Sivalingam : CASSCF convergence, NEVPT2, FIC-MRCI
   Georgi Stoychev        : AutoAux
   Boris Wezisla          : Elementary symmetry handling
   Frank Wennmohs         : Technical directorship


 We gratefully acknowledge several colleagues who have allowed us to
 interface, adapt or use parts of their codes:
   Stefan Grimme, W. Hujo, H. Kruse,             : VdW corrections, initial TS optimization,
                  C. Bannwarth                     DFT functionals, gCP, sTDA/sTD-DF
   Ed Valeev                                     : LibInt (2-el integral package), F12 methods
   Garnet Chan, S. Sharma, J. Yang, R. Olivares  : DMRG
   Ulf Ekstrom                                   : XCFun DFT Library
   Mihaly Kallay                                 : mrcc  (arbitrary order and MRCC methods)
   Andreas Klamt, Michael Diedenhofen            : otool_cosmo (COSMO solvation model)
   Jiri Pittner, Ondrej Demel                    : Mk-CCSD
   Frank Weinhold                                : gennbo (NPA and NBO analysis)
   Christopher J. Cramer and Donald G. Truhlar   : smd solvation model


 Your calculation uses the libint2 library for the computation of 2-el integrals
 For citations please refer to: http://libint.valeyev.net

 This ORCA versions uses:
   CBLAS   interface :  Fast vector & matrix operations
   LAPACKE interface :  Fast linear algebra routines
   SCALAPACK package :  Parallel linear algebra routines


Your calculation utilizes the basis: STO-3G
   H-Ne       : W. J. Hehre, R. F. Stewart and J. A. Pople, J. Chem. Phys. 2657 (1969).
   Na-Ar      : W. J. Hehre, R. Ditchfield, R. F. Stewart and J. A. Pople, J. Chem. Phys. 2769 (1970).
   K,Ca,Ga-Kr : W. J. Pietro, B. A. Levy, W. J. Hehre and R. F. Stewart, J. Am. Chem. Soc. 19, 2225 (1980).
   Sc-Zn,Y-Cd : W. J. Pietro and W. J. Hehre, J. Comp. Chem. 4, 241 (1983).

================================================================================
                                        WARNINGS
                       Please study these warnings very carefully!
================================================================================

Warning: TCutStore was < 0. Adjusted to Thresh (uncritical)

WARNING: your system is open-shell and RHF/RKS was chosen
  ===> : WILL SWITCH to UHF/UKS


WARNING: Geometry Optimization
  ===> : Switching off AutoStart
         For restart on a previous wavefunction, please use MOREAD

INFO   : the flag for use of LIBINT has been found!

================================================================================
                                       INPUT FILE
================================================================================
NAME = TSB_3.inp
|  1> %pal nprocs 1 end
|  2> ! hf sto-3g TightSCF
|  3> ! Opt Freq
|  4> * xyz 0 2
|  5>   6     -1.181234 -0.415006 -0.024793
|  6>   6     0.021375 0.543964 0.036049
|  7>   8     1.283556 -0.132677 -0.083697
|  8>   1     -2.258519 0.294364 0.034894
|  9>   1     -1.240232 -0.962193 -0.960676
| 10>   1     -1.232505 -1.091213 0.824119
| 11>   1     -0.030750 1.247708 -0.799406
| 12>   1     -0.025708 1.129285 0.962872
| 13>   1     1.303825 -0.741519 0.698524
| 14>   1     -3.035943 0.803108 0.078934
| 15> *
| 16> 
| 17> 
| 18>                          ****END OF INPUT****
================================================================================

                       *****************************
                       * Geometry Optimization Run *
                       *****************************

Geometry optimization settings:
Update method            Update   .... BFGS
Choice of coordinates    CoordSys .... Redundant Internals
Initial Hessian          InHess   .... Almoef's Model

Convergence Tolerances:
Energy Change            TolE     ....  5.0000e-06 Eh
Max. Gradient            TolMAXG  ....  3.0000e-04 Eh/bohr
RMS Gradient             TolRMSG  ....  1.0000e-04 Eh/bohr
Max. Displacement        TolMAXD  ....  4.0000e-03 bohr
RMS Displacement         TolRMSD  ....  2.0000e-03 bohr

------------------------------------------------------------------------------
                        ORCA OPTIMIZATION COORDINATE SETUP
------------------------------------------------------------------------------

The optimization will be done in new redundant internal coordinates
Making redundant internal coordinates   ...  (new redundants) done
Evaluating the initial hessian          ...  (Almloef) done
Evaluating the coordinates              ...  done
Calculating the B-matrix                .... done
Calculating the G-matrix                .... done
Diagonalizing the G-matrix              .... done
The first mode is                       ....   12
The number of degrees of freedom        ....   24

    -----------------------------------------------------------------
                    Redundant Internal Coordinates


    -----------------------------------------------------------------
         Definition                    Initial Value    Approx d2E/dq
    -----------------------------------------------------------------
      1. B(C   1,C   0)                  1.5393         0.360963   
      2. B(O   2,C   1)                  1.4371         0.470669   
      3. B(H   3,C   0)                  1.2912         0.171930   
      4. B(H   4,C   0)                  1.0857         0.365817   
      5. B(H   5,C   0)                  1.0865         0.364727   
      6. B(H   6,C   1)                  1.0936         0.355371   
      7. B(H   7,C   1)                  1.0972         0.350717   
      8. B(H   8,O   2)                  0.9914         0.463227   
      9. B(H   9,H   3)                  0.9301         0.124032   
     10. A(C   1,C   0,H   5)          113.1846         0.323172   
     11. A(H   3,C   0,H   4)          105.7467         0.260350   
     12. A(H   3,C   0,H   5)          105.4513         0.260234   
     13. A(C   1,C   0,H   4)          112.9852         0.323331   
     14. A(H   4,C   0,H   5)          110.9322         0.292146   
     15. A(C   1,C   0,H   3)          107.9222         0.286520   
     16. A(C   0,C   1,O   2)          112.9259         0.373481   
     17. A(H   6,C   1,H   7)          107.4568         0.289038   
     18. A(O   2,C   1,H   7)          111.0544         0.333446   
     19. A(C   0,C   1,H   7)          109.4025         0.321106   
     20. A(O   2,C   1,H   6)          106.3315         0.334177   
     21. A(C   0,C   1,H   6)          109.4788         0.321799   
     22. A(C   1,O   2,H   8)          103.9663         0.346302   
     23. L(C   0,H   3,H   9,C   1, 2) 180.1156         0.196261   
     24. L(C   0,H   3,H   9,C   1, 1) 180.1593         0.196261   
     25. D(H   6,C   1,C   0,H   5)   -175.4080         0.010449   
     26. D(O   2,C   1,C   0,H   4)    -60.8109         0.010449   
     27. D(H   6,C   1,C   0,H   3)    -59.1047         0.010449   
     28. D(O   2,C   1,C   0,H   3)   -177.3629         0.010449   
     29. D(O   2,C   1,C   0,H   5)     66.3339         0.010449   
     30. D(H   7,C   1,C   0,H   3)     58.4072         0.010449   
     31. D(H   7,C   1,C   0,H   4)    174.9591         0.010449   
     32. D(H   7,C   1,C   0,H   5)    -57.8960         0.010449   
     33. D(H   6,C   1,C   0,H   4)     57.4472         0.010449   
     34. D(H   8,O   2,C   1,H   7)     62.0350         0.017463   
     35. D(H   8,O   2,C   1,H   6)    178.6351         0.017463   
     36. D(H   8,O   2,C   1,C   0)    -61.2847         0.017463   
    -----------------------------------------------------------------

Number of atoms                         .... 10
Number of degrees of freedom            .... 36

         *************************************************************
         *                GEOMETRY OPTIMIZATION CYCLE   1            *
         *************************************************************
---------------------------------
CARTESIAN COORDINATES (ANGSTROEM)
---------------------------------
  C     -1.181234   -0.415006   -0.024793
  C      0.021375    0.543964    0.036049
  O      1.283556   -0.132677   -0.083697
  H     -2.258519    0.294364    0.034894
  H     -1.240232   -0.962193   -0.960676
  H     -1.232505   -1.091213    0.824119
  H     -0.030750    1.247708   -0.799406
  H     -0.025708    1.129285    0.962872
  H      1.303825   -0.741519    0.698524
  H     -3.035943    0.803108    0.078934

----------------------------
CARTESIAN COORDINATES (A.U.)
----------------------------
  NO LB      ZA    FRAG     MASS         X           Y           Z
   0 C     6.0000    0    12.011   -2.232209   -0.784248   -0.046852
   1 C     6.0000    0    12.011    0.040393    1.027943    0.068123
   2 O     8.0000    0    15.999    2.425569   -0.250723   -0.158164
   3 H     1.0000    0     1.008   -4.267982    0.556267    0.065940
   4 H     1.0000    0     1.008   -2.343699   -1.818281   -1.815415
   5 H     1.0000    0     1.008   -2.329097   -2.062094    1.557359
   6 H     1.0000    0     1.008   -0.058109    2.357826   -1.510658
   7 H     1.0000    0     1.008   -0.048581    2.134039    1.819564
   8 H     1.0000    0     1.008    2.463872   -1.401268    1.320019
   9 H     1.0000    0     1.008   -5.737101    1.517654    0.149164

--------------------------------
INTERNAL COORDINATES (ANGSTROEM)
--------------------------------
 C      0   0   0     0.000000000000     0.00000000     0.00000000
 C      1   0   0     1.539348439030     0.00000000     0.00000000
 O      2   1   0     1.437109259645   112.92591371     0.00000000
 H      1   2   3     1.291244092375   107.92216518   182.63713038
 H      1   2   3     1.085712377502   112.98523560   299.18906067
 H      1   2   3     1.086524829921   113.18464423    66.33392248
 H      2   1   3     1.093598505022   109.47878681   118.25812301
 H      2   1   3     1.097186563561   109.40245491   235.77003992
 H      3   2   1     0.991447984599   103.96634344   298.71525617
 H      4   1   2     0.930133353295   179.82445695   204.78545634

---------------------------
INTERNAL COORDINATES (A.U.)
---------------------------
 C      0   0   0     0.000000000000     0.00000000     0.00000000
 C      1   0   0     2.908946974446     0.00000000     0.00000000
 O      2   1   0     2.715742925252   112.92591371     0.00000000
 H      1   2   3     2.440097706633   107.92216518   182.63713038
 H      1   2   3     2.051699053688   112.98523560   299.18906067
 H      1   2   3     2.053234366255   113.18464423    66.33392248
 H      2   1   3     2.066601674957   109.47878681   118.25812301
 H      2   1   3     2.073382122949   109.40245491   235.77003992
 H      3   2   1     1.873565166921   103.96634344   298.71525617
 H      4   1   2     1.757697305754   179.82445695   204.78545634

---------------------
BASIS SET INFORMATION
---------------------
There are 3 groups of distinct atoms

 Group   1 Type C   : 6s3p contracted to 2s1p pattern {33/3}
 Group   2 Type O   : 6s3p contracted to 2s1p pattern {33/3}
 Group   3 Type H   : 3s contracted to 1s pattern {3}

Atom   0C    basis set group =>   1
Atom   1C    basis set group =>   1
Atom   2O    basis set group =>   2
Atom   3H    basis set group =>   3
Atom   4H    basis set group =>   3
Atom   5H    basis set group =>   3
Atom   6H    basis set group =>   3
Atom   7H    basis set group =>   3
Atom   8H    basis set group =>   3
Atom   9H    basis set group =>   3
------------------------------------------------------------------------------
                           ORCA GTO INTEGRAL CALCULATION
------------------------------------------------------------------------------

                         BASIS SET STATISTICS AND STARTUP INFO

 # of primitive gaussian shells          ...   48
 # of primitive gaussian functions       ...   66
 # of contracted shells                  ...   16
 # of contracted basis functions         ...   22
 Highest angular momentum                ...    1
 Maximum contraction depth               ...    3
 Integral package used                   ... LIBINT
 Integral threshhold            Thresh   ...  2.500e-11
 Primitive cut-off              TCut     ...  2.500e-12


------------------------------ INTEGRAL EVALUATION ----------------------------


 * One electron integrals 
 Pre-screening matrix                    ... done
 Shell pair data                         ... done (   0.000 sec)

-------------------------------------------------------------------------------
                                 ORCA SCF
-------------------------------------------------------------------------------

------------
SCF SETTINGS
------------
Hamiltonian:
 Ab initio Hamiltonian  Method          .... Hartree-Fock(GTOs)


General Settings:
 Integral files         IntName         .... TSB_3
 Hartree-Fock type      HFTyp           .... UHF
 Total Charge           Charge          ....    0
 Multiplicity           Mult            ....    2
 Number of Electrons    NEL             ....   27
 Basis Dimension        Dim             ....   22
 Nuclear Repulsion      ENuc            ....     85.0931836816 Eh

Convergence Acceleration:
 DIIS                   CNVDIIS         .... on
   Start iteration      DIISMaxIt       ....    12
   Startup error        DIISStart       ....  0.200000
   # of expansion vecs  DIISMaxEq       ....     5
   Bias factor          DIISBfac        ....   1.050
   Max. coefficient     DIISMaxC        ....  10.000
 Newton-Raphson         CNVNR           .... off
 SOSCF                  CNVSOSCF        .... off
 Level Shifting         CNVShift        .... on
   Level shift para.    LevelShift      ....    0.2500
   Turn off err/grad.   ShiftErr        ....    0.0010
 Zerner damping         CNVZerner       .... off
 Static damping         CNVDamp         .... on
   Fraction old density DampFac         ....    0.7000
   Max. Damping (<1)    DampMax         ....    0.9800
   Min. Damping (>=0)   DampMin         ....    0.0000
   Turn off err/grad.   DampErr         ....    0.1000
 Fernandez-Rico         CNVRico         .... off

SCF Procedure:
 Maximum # iterations   MaxIter         ....   125
 SCF integral mode      SCFMode         .... Direct
   Integral package                     .... LIBINT
 Reset frequeny         DirectResetFreq ....    20
 Integral Threshold     Thresh          ....  2.500e-11 Eh
 Primitive CutOff       TCut            ....  2.500e-12 Eh

Convergence Tolerance:
 Convergence Check Mode ConvCheckMode   .... Total+1el-Energy
 Convergence forced     ConvForced      .... 0
 Energy Change          TolE            ....  1.000e-08 Eh
 1-El. energy change                    ....  1.000e-05 Eh
 DIIS Error             TolErr          ....  5.000e-07


Diagonalization of the overlap matrix:
Smallest eigenvalue                        ... 2.179e-01
Time for diagonalization                   ...    0.000 sec
Threshold for overlap eigenvalues          ... 1.000e-08
Number of eigenvalues below threshold      ... 0
Time for construction of square roots      ...    0.000 sec
Total time needed                          ...    0.000 sec

-------------------
DFT GRID GENERATION
-------------------

General Integration Accuracy     IntAcc      ...  4.340
Radial Grid Type                 RadialGrid  ... Gauss-Chebyshev
Angular Grid (max. acc.)         AngularGrid ... Lebedev-110
Angular grid pruning method      GridPruning ... 3 (G Style)
Weight generation scheme         WeightScheme... Becke
Basis function cutoff            BFCut       ...    1.0000e-11
Integration weight cutoff        WCut        ...    1.0000e-14
Grids for H and He will be reduced by one unit

# of grid points (after initial pruning)     ...  10586 (   0.0 sec)
# of grid points (after weights+screening)   ...  10064 (   0.0 sec)
nearest neighbour list constructed           ...    0.0 sec
Grid point re-assignment to atoms done       ...    0.0 sec
Grid point division into batches done        ...    0.0 sec
Reduced shell lists constructed in    0.1 sec

Total number of grid points                  ...    10064
Total number of batches                      ...      162
Average number of points per batch           ...       62
Average number of grid points per atom       ...     1006
Average number of shells per batch           ...    13.64 (85.24%)
Average number of basis functions per batch  ...    19.36 (87.98%)
Average number of large shells per batch     ...    12.54 (91.95%)
Average number of large basis fcns per batch ...    17.90 (92.49%)
Maximum spatial batch extension              ...  21.50, 19.45, 21.67 au
Average spatial batch extension              ...   4.22,  4.26,  4.09 au

Time for grid setup =    0.061 sec

------------------------------
INITIAL GUESS: MODEL POTENTIAL
------------------------------
Loading Hartree-Fock densities                     ... done
Calculating cut-offs                               ... done
Setting up the integral package                    ... done
Initializing the effective Hamiltonian             ... done
Starting the Coulomb interaction                   ... done (   0.0 sec)
Reading the grid                                   ... done
Mapping shells                                     ... done
Starting the XC term evaluation                    ... done (   0.1 sec)
Transforming the Hamiltonian                       ... done (   0.0 sec)
Diagonalizing the Hamiltonian                      ... done (   0.0 sec)
Back transforming the eigenvectors                 ... done (   0.0 sec)
Now organizing SCF variables                       ... done
                      ------------------
                      INITIAL GUESS DONE (   0.2 sec)
                      ------------------
--------------
SCF ITERATIONS
--------------
ITER       Energy         Delta-E        Max-DP      RMS-DP      [F,P]     Damp
               ***  Starting incremental Fock matrix formation  ***
  0   -152.4696809792   0.000000000000 0.03365647  0.00388856  0.1456585 0.7000
  1   -152.4961836166  -0.026502637415 0.02977218  0.00333454  0.1095817 0.7000
                               ***Turning on DIIS***
  2   -152.5152889159  -0.019105299284 0.07422708  0.00807512  0.0781665 0.0000
  3   -152.5313779831  -0.016089067151 0.02335176  0.00177875  0.0083509 0.0000
  4   -152.5598792832  -0.028501300101 0.01923258  0.00114365  0.0036460 0.0000
  5   -152.5614476344  -0.001568351193 0.01309533  0.00079322  0.0017160 0.0000
  6   -152.5638094704  -0.002361836064 0.00683917  0.00049430  0.0008303 0.0000
  7   -152.5640773611  -0.000267890689 0.00148155  0.00016347  0.0002875 0.0000
  8   -152.5642654564  -0.000188095242 0.00049675  0.00006189  0.0000578 0.0000
  9   -152.5643210987  -0.000055642359 0.00019406  0.00002829  0.0000149 0.0000
 10   -152.5643341622  -0.000013063469 0.00009958  0.00001476  0.0000108 0.0000
 11   -152.5643438810  -0.000009718854 0.00012339  0.00001760  0.0000089 0.0000
 12   -152.5643421359   0.000001745146 0.00006123  0.00000849  0.0000038 0.0000
                            ***DIIS convergence achieved***

               *****************************************************
               *                     SUCCESS                       *
               *           SCF CONVERGED AFTER  13 CYCLES          *
               *****************************************************


----------------
TOTAL SCF ENERGY
----------------

Total Energy       :         -152.56433579 Eh           -4151.48663 eV

Components:
Nuclear Repulsion  :           85.09318368 Eh            2315.50325 eV
Electronic Energy  :         -237.65751948 Eh           -6466.98988 eV
One Electron Energy:         -377.07595746 Eh          -10260.75845 eV
Two Electron Energy:          139.41843798 Eh            3793.76857 eV

Virial components:
Potential Energy   :         -304.17010299 Eh           -8276.88929 eV
Kinetic Energy     :          151.60576719 Eh            4125.40266 eV
Virial Ratio       :            2.00632277


---------------
SCF CONVERGENCE
---------------

  Last Energy change         ...    6.3412e-06  Tolerance :   1.0000e-08
  Last MAX-Density change    ...    9.1257e-06  Tolerance :   1.0000e-07
  Last RMS-Density change    ...    1.1854e-06  Tolerance :   5.0000e-09
  Last DIIS Error            ...    5.1260e-07  Tolerance :   5.0000e-07

             **** THE GBW FILE WAS UPDATED (TSB_3.gbw) ****
             **** DENSITY FILE WAS UPDATED (TSB_3.scfp.tmp) ****
             **** ENERGY FILE WAS UPDATED (TSB_3.en.tmp) ****
----------------------
UHF SPIN CONTAMINATION
----------------------

Expectation value of <S**2>     :     0.787517
Ideal value S*(S+1) for S=0.5   :     0.750000
Deviation                       :     0.037517

----------------
ORBITAL ENERGIES
----------------
                 SPIN UP ORBITALS
  NO   OCC          E(Eh)            E(eV) 
   0   1.0000     -20.261784      -551.3512 
   1   1.0000     -11.092008      -301.8289 
   2   1.0000     -11.044262      -300.5296 
   3   1.0000      -1.282839       -34.9078 
   4   1.0000      -0.979298       -26.6480 
   5   1.0000      -0.808417       -21.9982 
   6   1.0000      -0.632434       -17.2094 
   7   1.0000      -0.625797       -17.0288 
   8   1.0000      -0.554604       -15.0915 
   9   1.0000      -0.520947       -14.1757 
  10   1.0000      -0.494606       -13.4589 
  11   1.0000      -0.422970       -11.5096 
  12   1.0000      -0.364044        -9.9061 
  13   1.0000      -0.309678        -8.4268 
  14   0.0000       0.568566        15.4715 
  15   0.0000       0.617864        16.8129 
  16   0.0000       0.658598        17.9214 
  17   0.0000       0.670910        18.2564 
  18   0.0000       0.724249        19.7078 
  19   0.0000       0.732764        19.9395 
  20   0.0000       0.783463        21.3191 
  21   0.0000       0.813574        22.1385 

                 SPIN DOWN ORBITALS
  NO   OCC          E(Eh)            E(eV) 
   0   1.0000     -20.260724      -551.3223 
   1   1.0000     -11.094078      -301.8852 
   2   1.0000     -11.023385      -299.9615 
   3   1.0000      -1.278049       -34.7775 
   4   1.0000      -0.942188       -25.6382 
   5   1.0000      -0.788154       -21.4468 
   6   1.0000      -0.623015       -16.9531 
   7   1.0000      -0.553445       -15.0600 
   8   1.0000      -0.541365       -14.7313 
   9   1.0000      -0.501220       -13.6389 
  10   1.0000      -0.477464       -12.9925 
  11   1.0000      -0.408536       -11.1168 
  12   1.0000      -0.353771        -9.6266 
  13   0.0000       0.232787         6.3344 
  14   0.0000       0.576761        15.6945 
  15   0.0000       0.624321        16.9886 
  16   0.0000       0.673189        18.3184 
  17   0.0000       0.691432        18.8148 
  18   0.0000       0.727530        19.7971 
  19   0.0000       0.751096        20.4384 
  20   0.0000       0.797919        21.7125 
  21   0.0000       0.906305        24.6618 

                    ********************************
                    * MULLIKEN POPULATION ANALYSIS *
                    ********************************

--------------------------------------------
MULLIKEN ATOMIC CHARGES AND SPIN POPULATIONS
--------------------------------------------
   0 C :   -0.144080    0.726411
   1 C :    0.001322   -0.075359
   2 O :   -0.283047    0.037561
   3 H :    0.037415   -0.252034
   4 H :    0.064445   -0.044706
   5 H :    0.053980   -0.044700
   6 H :    0.066630    0.006561
   7 H :    0.050853    0.005667
   8 H :    0.170743   -0.003392
   9 H :   -0.018261    0.643990
Sum of atomic charges         :    0.0000000
Sum of atomic spin populations:    1.0000000

-----------------------------------------------------
MULLIKEN REDUCED ORBITAL CHARGES AND SPIN POPULATIONS
-----------------------------------------------------
CHARGE
  0 C s       :     3.210547  s :     3.210547
      pz      :     1.008258  p :     2.933533
      px      :     0.946501
      py      :     0.978774
  1 C s       :     3.169141  s :     3.169141
      pz      :     1.028192  p :     2.829537
      px      :     0.842912
      py      :     0.958433
  2 O s       :     3.837583  s :     3.837583
      pz      :     1.518725  p :     4.445464
      px      :     1.395337
      py      :     1.531403
  3 H s       :     0.962585  s :     0.962585
  4 H s       :     0.935555  s :     0.935555
  5 H s       :     0.946020  s :     0.946020
  6 H s       :     0.933370  s :     0.933370
  7 H s       :     0.949147  s :     0.949147
  8 H s       :     0.829257  s :     0.829257
  9 H s       :     1.018261  s :     1.018261

SPIN
  0 C s       :     0.120636  s :     0.120636
      pz      :     0.044458  p :     0.605776
      px      :     0.367768
      py      :     0.193551
  1 C s       :    -0.015809  s :    -0.015809
      pz      :    -0.005241  p :    -0.059550
      px      :    -0.034553
      py      :    -0.019756
  2 O s       :     0.000822  s :     0.000822
      pz      :     0.001591  p :     0.036739
      px      :     0.034098
      py      :     0.001050
  3 H s       :    -0.252034  s :    -0.252034
  4 H s       :    -0.044706  s :    -0.044706
  5 H s       :    -0.044700  s :    -0.044700
  6 H s       :     0.006561  s :     0.006561
  7 H s       :     0.005667  s :     0.005667
  8 H s       :    -0.003392  s :    -0.003392
  9 H s       :     0.643990  s :     0.643990


                     *******************************
                     * LOEWDIN POPULATION ANALYSIS *
                     *******************************

-------------------------------------------
LOEWDIN ATOMIC CHARGES AND SPIN POPULATIONS
-------------------------------------------
   0 C :   -0.081243    0.663687
   1 C :    0.047552   -0.060069
   2 O :   -0.202881    0.034660
   3 H :    0.046444   -0.177958
   4 H :    0.032264   -0.033604
   5 H :    0.024331   -0.033601
   6 H :    0.030898    0.005312
   7 H :    0.016353    0.004578
   8 H :    0.118550   -0.002761
   9 H :   -0.032267    0.599757

----------------------------------------------------
LOEWDIN REDUCED ORBITAL CHARGES AND SPIN POPULATIONS
----------------------------------------------------
CHARGE
  0 C s       :     3.059386  s :     3.059386
      pz      :     1.034044  p :     3.021857
      px      :     0.978661
      py      :     1.009152
  1 C s       :     3.028261  s :     3.028261
      pz      :     1.047610  p :     2.924187
      px      :     0.889343
      py      :     0.987234
  2 O s       :     3.714353  s :     3.714353
      pz      :     1.529888  p :     4.488528
      px      :     1.414337
      py      :     1.544303
  3 H s       :     0.953556  s :     0.953556
  4 H s       :     0.967736  s :     0.967736
  5 H s       :     0.975669  s :     0.975669
  6 H s       :     0.969102  s :     0.969102
  7 H s       :     0.983647  s :     0.983647
  8 H s       :     0.881450  s :     0.881450
  9 H s       :     1.032267  s :     1.032267

SPIN
  0 C s       :     0.094161  s :     0.094161
      pz      :     0.035618  p :     0.569527
      px      :     0.351706
      py      :     0.182202
  1 C s       :    -0.010646  s :    -0.010646
      pz      :    -0.004122  p :    -0.049423
      px      :    -0.028707
      py      :    -0.016595
  2 O s       :    -0.000174  s :    -0.000174
      pz      :     0.001382  p :     0.034834
      px      :     0.032731
      py      :     0.000721
  3 H s       :    -0.177958  s :    -0.177958
  4 H s       :    -0.033604  s :    -0.033604
  5 H s       :    -0.033601  s :    -0.033601
  6 H s       :     0.005312  s :     0.005312
  7 H s       :     0.004578  s :     0.004578
  8 H s       :    -0.002761  s :    -0.002761
  9 H s       :     0.599757  s :     0.599757


                      *****************************
                      * MAYER POPULATION ANALYSIS *
                      *****************************

  NA   - Mulliken gross atomic population
  ZA   - Total nuclear charge
  QA   - Mulliken gross atomic charge
  VA   - Mayer's total valence
  BVA  - Mayer's bonded valence
  FA   - Mayer's free valence

  ATOM       NA         ZA         QA         VA         BVA        FA
  0 C      6.1441     6.0000    -0.1441     3.9512     3.6037     0.3475
  1 C      5.9987     6.0000     0.0013     3.9322     3.9299     0.0024
  2 O      8.2830     8.0000    -0.2830     1.9962     1.9948     0.0014
  3 H      0.9626     1.0000     0.0374     0.9986     0.9351     0.0635
  4 H      0.9356     1.0000     0.0644     0.9958     0.9938     0.0020
  5 H      0.9460     1.0000     0.0540     0.9971     0.9951     0.0020
  6 H      0.9334     1.0000     0.0666     0.9956     0.9955     0.0000
  7 H      0.9491     1.0000     0.0509     0.9974     0.9974     0.0000
  8 H      0.8293     1.0000     0.1707     0.9708     0.9708     0.0000
  9 H      1.0183     1.0000    -0.0183     0.9997     0.5849     0.4147

  Mayer bond orders larger than 0.1
B(  0-C ,  1-C ) :   0.9890 B(  0-C ,  3-H ) :   0.4900 B(  0-C ,  4-H ) :   0.9775 
B(  0-C ,  5-H ) :   0.9778 B(  0-C ,  9-H ) :   0.1336 B(  1-C ,  2-O ) :   0.9824 
B(  1-C ,  6-H ) :   0.9707 B(  1-C ,  7-H ) :   0.9648 B(  2-O ,  8-H ) :   0.9500 
B(  3-H ,  9-H ) :   0.4379 

-------
TIMINGS
-------

Total SCF time: 0 days 0 hours 0 min 1 sec 

Total time                  ....       1.676 sec
Sum of individual times     ....       1.672 sec  ( 99.8%)

Fock matrix formation       ....       1.468 sec  ( 87.6%)
Diagonalization             ....       0.003 sec  (  0.2%)
Density matrix formation    ....       0.000 sec  (  0.0%)
Population analysis         ....       0.001 sec  (  0.0%)
Initial guess               ....       0.138 sec  (  8.2%)
Orbital Transformation      ....       0.000 sec  (  0.0%)
Orbital Orthonormalization  ....       0.000 sec  (  0.0%)
DIIS solution               ....       0.001 sec  (  0.1%)

-------------------------   --------------------
FINAL SINGLE POINT ENERGY      -152.564335794667
-------------------------   --------------------

------------------------------------------------------------------------------
                         ORCA SCF GRADIENT CALCULATION
------------------------------------------------------------------------------

Gradient of the Hartree-Fock SCF energy:
Hartree-Fock type                ... UHF
Number of operators              ...    2
Number of atoms                  ...   10
Basis set dimensions             ...   22
Integral neglect threshold       ... 2.5e-11
Integral primitive cutoff        ... 2.5e-12

Nuclear repulsion gradient       ... done
One Electron Gradient            ... done
Pre-screening matrix             ... done
Starting the two electron gradient:
Two electron gradient done

------------------
CARTESIAN GRADIENT
------------------

   1   C   :    0.000038298    0.000009819    0.000002821
   2   C   :   -0.000020701   -0.000027897   -0.000001764
   3   O   :    0.000001421   -0.000026177    0.000043183
   4   H   :   -0.000026949    0.000020923    0.000003354
   5   H   :    0.000004807    0.000000787   -0.000001209
   6   H   :    0.000006122   -0.000002002   -0.000001067
   7   H   :   -0.000001460   -0.000002310   -0.000001346
   8   H   :   -0.000002072    0.000002070   -0.000001627
   9   H   :   -0.000004276    0.000028366   -0.000041869
  10   H   :    0.000004811   -0.000003579   -0.000000476

Difference to translation invariance:
           :   -0.0000000000   -0.0000000000   -0.0000000000

Norm of the cartesian gradient     ...    0.0000959622
RMS gradient                       ...    0.0000175202
MAX gradient                       ...    0.0000431834

-------
TIMINGS
-------

Total SCF gradient time            ...        0.130 sec

One electron gradient       ....       0.004 sec  (  3.3%)
Prescreening matrices       ....       0.002 sec  (  1.6%)
Two electron gradient       ....       0.062 sec  ( 47.7%)
------------------------------------------------------------------------------
                         ORCA GEOMETRY RELAXATION STEP
------------------------------------------------------------------------------

Reading the OPT-File                    .... done
Getting information on internals        .... done
Copying old internal coords+grads       .... done
Making the new internal coordinates     .... (new redundants).... done
Validating the new internal coordinates .... (new redundants).... done
Calculating the B-matrix                .... done
Calculating the G,G- and P matrices     .... done
Transforming gradient to internals      .... done
Projecting the internal gradient        .... done
Number of atoms                         ....  10
Number of internal coordinates          ....  36
Current Energy                          ....  -152.564335795 Eh
Current gradient norm                   ....     0.000095962 Eh/bohr
Maximum allowed component of the step   ....  0.300
Current trust radius                    ....  0.300
Evaluating the initial hessian          ....  (Almloef) done
Projecting the Hessian                  .... done
Forming the augmented Hessian           .... done
Diagonalizing the augmented Hessian     .... done
Last element of RFO vector              ....  0.999999886
Lowest eigenvalues of augmented Hessian:
 -0.000000017  0.010449356  0.017462723  0.090935416  0.097362939
Length of the computed step             ....  0.000476724
The final length of the internal step   ....  0.000476724
Converting the step to cartesian space:
 Initial RMS(Int)=    0.0000794539
Transforming coordinates:
 Iter   0:  RMS(Cart)=    0.0000842157 RMS(Int)=    0.0000794539
 Iter   1:  RMS(Cart)=    0.0000000194 RMS(Int)=    0.0000000200
done
Storing new coordinates                 .... done

                                .--------------------.
          ----------------------|Geometry convergence|-------------------------
          Item                value                   Tolerance       Converged
          ---------------------------------------------------------------------
          RMS gradient        0.0000117436            0.0001000000      YES
          MAX gradient        0.0000505401            0.0003000000      YES
          RMS step            0.0000794539            0.0020000000      YES
          MAX step            0.0001636284            0.0040000000      YES
          ........................................................
          Max(Bonds)      0.0001      Max(Angles)    0.00
          Max(Dihed)        0.01      Max(Improp)    0.00
          ---------------------------------------------------------------------

                    ***********************HURRAY********************
                    ***        THE OPTIMIZATION HAS CONVERGED     ***
                    *************************************************


    ---------------------------------------------------------------------------
                         Redundant Internal Coordinates

                          --- Optimized Parameters ---  
                            (Angstroem and degrees)

        Definition                    OldVal   dE/dq     Step     FinalVal
    ----------------------------------------------------------------------------
     1. B(C   1,C   0)                1.5393 -0.000037  0.0001    1.5394   
     2. B(O   2,C   1)                1.4371 -0.000004  0.0000    1.4371   
     3. B(H   3,C   0)                1.2912  0.000028 -0.0001    1.2912   
     4. B(H   4,C   0)                1.0857  0.000000 -0.0000    1.0857   
     5. B(H   5,C   0)                1.0865  0.000000 -0.0000    1.0865   
     6. B(H   6,C   1)                1.0936 -0.000000  0.0000    1.0936   
     7. B(H   7,C   1)                1.0972 -0.000000  0.0000    1.0972   
     8. B(H   8,O   2)                0.9914 -0.000051  0.0001    0.9915   
     9. B(H   9,H   3)                0.9301 -0.000006  0.0000    0.9302   
    10. A(C   1,C   0,H   5)          113.18 -0.000004    0.00    113.19   
    11. A(H   3,C   0,H   4)          105.75  0.000004   -0.00    105.75   
    12. A(H   3,C   0,H   5)          105.45  0.000004   -0.00    105.45   
    13. A(C   1,C   0,H   4)          112.99 -0.000006    0.00    112.99   
    14. A(H   4,C   0,H   5)          110.93  0.000003    0.00    110.93   
    15. A(C   1,C   0,H   3)          107.92 -0.000001   -0.00    107.92   
    16. A(C   0,C   1,O   2)          112.93  0.000000   -0.00    112.93   
    17. A(H   6,C   1,H   7)          107.46  0.000000    0.00    107.46   
    18. A(O   2,C   1,H   7)          111.05  0.000001   -0.00    111.05   
    19. A(C   0,C   1,H   7)          109.40 -0.000001    0.00    109.40   
    20. A(O   2,C   1,H   6)          106.33  0.000001   -0.00    106.33   
    21. A(C   0,C   1,H   6)          109.48 -0.000001    0.00    109.48   
    22. A(C   1,O   2,H   8)          103.97 -0.000003    0.00    103.97   
    23. L(C   0,H   3,H   9,C   1, 2) 180.12 -0.000000    0.00    180.12   
    24. L(C   0,H   3,H   9,C   1, 1) 180.16  0.000001   -0.00    180.16   
    25. D(H   6,C   1,C   0,H   5)   -175.41 -0.000002    0.01   -175.40   
    26. D(O   2,C   1,C   0,H   4)    -60.81  0.000001    0.00    -60.81   
    27. D(H   6,C   1,C   0,H   3)    -59.10 -0.000000    0.01    -59.10   
    28. D(O   2,C   1,C   0,H   3)   -177.36 -0.000001    0.01   -177.36   
    29. D(O   2,C   1,C   0,H   5)     66.33 -0.000003    0.01     66.34   
    30. D(H   7,C   1,C   0,H   3)     58.41 -0.000001    0.01     58.41   
    31. D(H   7,C   1,C   0,H   4)    174.96  0.000000    0.01    174.96   
    32. D(H   7,C   1,C   0,H   5)    -57.90 -0.000004    0.01    -57.89   
    33. D(H   6,C   1,C   0,H   4)     57.45  0.000001    0.00     57.45   
    34. D(H   8,O   2,C   1,H   7)     62.04  0.000002   -0.01     62.03   
    35. D(H   8,O   2,C   1,H   6)    178.64  0.000004   -0.01    178.63   
    36. D(H   8,O   2,C   1,C   0)    -61.28  0.000003   -0.01    -61.29   
    ----------------------------------------------------------------------------
                 *******************************************************
                 *** FINAL ENERGY EVALUATION AT THE STATIONARY POINT ***
                 ***               (AFTER    1 CYCLES)               ***
                 *******************************************************
---------------------------------
CARTESIAN COORDINATES (ANGSTROEM)
---------------------------------
  C     -1.181280   -0.415016   -0.024783
  C      0.021382    0.543976    0.036060
  O      1.283555   -0.132671   -0.083776
  H     -2.258483    0.294325    0.034856
  H     -1.240294   -0.962227   -0.960650
  H     -1.232605   -1.091191    0.824151
  H     -0.030766    1.247765   -0.799356
  H     -0.025650    1.129249    0.962917
  H      1.303925   -0.741487    0.698536
  H     -3.035920    0.803099    0.078866

----------------------------
CARTESIAN COORDINATES (A.U.)
----------------------------
  NO LB      ZA    FRAG     MASS         X           Y           Z
   0 C     6.0000    0    12.011   -2.232295   -0.784267   -0.046833
   1 C     6.0000    0    12.011    0.040405    1.027966    0.068144
   2 O     8.0000    0    15.999    2.425568   -0.250712   -0.158314
   3 H     1.0000    0     1.008   -4.267914    0.556193    0.065868
   4 H     1.0000    0     1.008   -2.343816   -1.818346   -1.815366
   5 H     1.0000    0     1.008   -2.329287   -2.062052    1.557419
   6 H     1.0000    0     1.008   -0.058139    2.357935   -1.510564
   7 H     1.0000    0     1.008   -0.048471    2.133972    1.819649
   8 H     1.0000    0     1.008    2.464061   -1.401208    1.320041
   9 H     1.0000    0     1.008   -5.737056    1.517636    0.149035

--------------------------------
INTERNAL COORDINATES (ANGSTROEM)
--------------------------------
 C      0   0   0     0.000000000000     0.00000000     0.00000000
 C      1   0   0     1.539403363169     0.00000000     0.00000000
 O      2   1   0     1.437113359406   112.92582123     0.00000000
 H      1   2   3     1.291157503950   107.92191835   182.64310914
 H      1   2   3     1.085711820749   112.98657677   299.19400253
 H      1   2   3     1.086524652761   113.18565102    66.34119401
 H      2   1   3     1.093599085811   109.47914981   118.25785789
 H      2   1   3     1.097186834791   109.40282154   235.77023797
 H      3   2   1     0.991505720206   103.96679820   298.70646846
 H      4   1   2     0.930158953704   179.82462175   204.81645767

---------------------------
INTERNAL COORDINATES (A.U.)
---------------------------
 C      0   0   0     0.000000000000     0.00000000     0.00000000
 C      1   0   0     2.909050766026     0.00000000     0.00000000
 O      2   1   0     2.715750672677   112.92582123     0.00000000
 H      1   2   3     2.439934078223   107.92191835   182.64310914
 H      1   2   3     2.051698001576   112.98657677   299.19400253
 H      1   2   3     2.053234031472   113.18565102    66.34119401
 H      2   1   3     2.066602772489   109.47914981   118.25785789
 H      2   1   3     2.073382635498   109.40282154   235.77023797
 H      3   2   1     1.873674271406   103.96679820   298.70646846
 H      4   1   2     1.757745683516   179.82462175   204.81645767

---------------------
BASIS SET INFORMATION
---------------------
There are 3 groups of distinct atoms

 Group   1 Type C   : 6s3p contracted to 2s1p pattern {33/3}
 Group   2 Type O   : 6s3p contracted to 2s1p pattern {33/3}
 Group   3 Type H   : 3s contracted to 1s pattern {3}

Atom   0C    basis set group =>   1
Atom   1C    basis set group =>   1
Atom   2O    basis set group =>   2
Atom   3H    basis set group =>   3
Atom   4H    basis set group =>   3
Atom   5H    basis set group =>   3
Atom   6H    basis set group =>   3
Atom   7H    basis set group =>   3
Atom   8H    basis set group =>   3
Atom   9H    basis set group =>   3
------------------------------------------------------------------------------
                           ORCA GTO INTEGRAL CALCULATION
------------------------------------------------------------------------------

                         BASIS SET STATISTICS AND STARTUP INFO

 # of primitive gaussian shells          ...   48
 # of primitive gaussian functions       ...   66
 # of contracted shells                  ...   16
 # of contracted basis functions         ...   22
 Highest angular momentum                ...    1
 Maximum contraction depth               ...    3
 Integral package used                   ... LIBINT
 Integral threshhold            Thresh   ...  2.500e-11
 Primitive cut-off              TCut     ...  2.500e-12


------------------------------ INTEGRAL EVALUATION ----------------------------


 * One electron integrals 
 Pre-screening matrix                    ... done
 Shell pair data                         ... done (   0.000 sec)

-------------------------------------------------------------------------------
                                 ORCA SCF
-------------------------------------------------------------------------------

------------
SCF SETTINGS
------------
Hamiltonian:
 Ab initio Hamiltonian  Method          .... Hartree-Fock(GTOs)


General Settings:
 Integral files         IntName         .... TSB_3
 Hartree-Fock type      HFTyp           .... UHF
 Total Charge           Charge          ....    0
 Multiplicity           Mult            ....    2
 Number of Electrons    NEL             ....   27
 Basis Dimension        Dim             ....   22
 Nuclear Repulsion      ENuc            ....     85.0921236387 Eh

Convergence Acceleration:
 DIIS                   CNVDIIS         .... on
   Start iteration      DIISMaxIt       ....    12
   Startup error        DIISStart       ....  0.200000
   # of expansion vecs  DIISMaxEq       ....     5
   Bias factor          DIISBfac        ....   1.050
   Max. coefficient     DIISMaxC        ....  10.000
 Newton-Raphson         CNVNR           .... off
 SOSCF                  CNVSOSCF        .... off
 Level Shifting         CNVShift        .... on
   Level shift para.    LevelShift      ....    0.2500
   Turn off err/grad.   ShiftErr        ....    0.0010
 Zerner damping         CNVZerner       .... off
 Static damping         CNVDamp         .... on
   Fraction old density DampFac         ....    0.7000
   Max. Damping (<1)    DampMax         ....    0.9800
   Min. Damping (>=0)   DampMin         ....    0.0000
   Turn off err/grad.   DampErr         ....    0.1000
 Fernandez-Rico         CNVRico         .... off

SCF Procedure:
 Maximum # iterations   MaxIter         ....   125
 SCF integral mode      SCFMode         .... Direct
   Integral package                     .... LIBINT
 Reset frequeny         DirectResetFreq ....    20
 Integral Threshold     Thresh          ....  2.500e-11 Eh
 Primitive CutOff       TCut            ....  2.500e-12 Eh

Convergence Tolerance:
 Convergence Check Mode ConvCheckMode   .... Total+1el-Energy
 Convergence forced     ConvForced      .... 0
 Energy Change          TolE            ....  1.000e-08 Eh
 1-El. energy change                    ....  1.000e-05 Eh
 DIIS Error             TolErr          ....  5.000e-07


Diagonalization of the overlap matrix:
Smallest eigenvalue                        ... 2.179e-01
Time for diagonalization                   ...    0.000 sec
Threshold for overlap eigenvalues          ... 1.000e-08
Number of eigenvalues below threshold      ... 0
Time for construction of square roots      ...    0.000 sec
Total time needed                          ...    0.000 sec

---------------------
INITIAL GUESS: MOREAD
---------------------
Guess MOs are being read from file: TSB_3.gbw
Input Geometry matches current geometry (good)
Input basis set matches current basis set (good)
MOs were renormalized
MOs were reorthogonalized (Cholesky)
                      ------------------
                      INITIAL GUESS DONE (   0.0 sec)
                      ------------------
--------------
SCF ITERATIONS
--------------
ITER       Energy         Delta-E        Max-DP      RMS-DP      [F,P]     Damp
               ***  Starting incremental Fock matrix formation  ***
  0   -152.5643353281   0.000000000000 0.00000540  0.00000076  0.0000281 0.7000
                 **** Energy Check signals convergence ****

               *****************************************************
               *                     SUCCESS                       *
               *           SCF CONVERGED AFTER   1 CYCLES          *
               *****************************************************


----------------
TOTAL SCF ENERGY
----------------

Total Energy       :         -152.56433533 Eh           -4151.48662 eV

Components:
Nuclear Repulsion  :           85.09212364 Eh            2315.47440 eV
Electronic Energy  :         -237.65645897 Eh           -6466.96102 eV
One Electron Energy:         -377.07395316 Eh          -10260.70391 eV
Two Electron Energy:          139.41749419 Eh            3793.74289 eV

Virial components:
Potential Energy   :         -304.17000180 Eh           -8276.88654 eV
Kinetic Energy     :          151.60566647 Eh            4125.39992 eV
Virial Ratio       :            2.00632344


---------------
SCF CONVERGENCE
---------------

  Last Energy change         ...   -1.5073e-09  Tolerance :   1.0000e-08
  Last MAX-Density change    ...    5.6053e-06  Tolerance :   1.0000e-07
  Last RMS-Density change    ...    7.5628e-07  Tolerance :   5.0000e-09
  Last DIIS Error            ...    2.3815e-05  Tolerance :   5.0000e-07

             **** THE GBW FILE WAS UPDATED (TSB_3.gbw) ****
             **** DENSITY FILE WAS UPDATED (TSB_3.scfp.tmp) ****
             **** ENERGY FILE WAS UPDATED (TSB_3.en.tmp) ****
----------------------
UHF SPIN CONTAMINATION
----------------------

Expectation value of <S**2>     :     0.787514
Ideal value S*(S+1) for S=0.5   :     0.750000
Deviation                       :     0.037514

----------------
ORBITAL ENERGIES
----------------
                 SPIN UP ORBITALS
  NO   OCC          E(Eh)            E(eV) 
   0   1.0000     -20.261780      -551.3511 
   1   1.0000     -11.092010      -301.8289 
   2   1.0000     -11.044263      -300.5297 
   3   1.0000      -1.282822       -34.9074 
   4   1.0000      -0.979288       -26.6478 
   5   1.0000      -0.808420       -21.9982 
   6   1.0000      -0.632431       -17.2093 
   7   1.0000      -0.625791       -17.0286 
   8   1.0000      -0.554588       -15.0911 
   9   1.0000      -0.520945       -14.1756 
  10   1.0000      -0.494609       -13.4590 
  11   1.0000      -0.422960       -11.5093 
  12   1.0000      -0.364042        -9.9061 
  13   1.0000      -0.309676        -8.4267 
  14   0.0000       0.568537        15.4707 
  15   0.0000       0.617861        16.8129 
  16   0.0000       0.658566        17.9205 
  17   0.0000       0.670873        18.2554 
  18   0.0000       0.724248        19.7078 
  19   0.0000       0.732750        19.9391 
  20   0.0000       0.783458        21.3190 
  21   0.0000       0.813623        22.1398 

                 SPIN DOWN ORBITALS
  NO   OCC          E(Eh)            E(eV) 
   0   1.0000     -20.260720      -551.3222 
   1   1.0000     -11.094079      -301.8852 
   2   1.0000     -11.023387      -299.9616 
   3   1.0000      -1.278031       -34.7770 
   4   1.0000      -0.942177       -25.6379 
   5   1.0000      -0.788158       -21.4469 
   6   1.0000      -0.623008       -16.9529 
   7   1.0000      -0.553437       -15.0598 
   8   1.0000      -0.541354       -14.7310 
   9   1.0000      -0.501223       -13.6390 
  10   1.0000      -0.477465       -12.9925 
  11   1.0000      -0.408532       -11.1167 
  12   1.0000      -0.353764        -9.6264 
  13   0.0000       0.232799         6.3348 
  14   0.0000       0.576727        15.6935 
  15   0.0000       0.624320        16.9886 
  16   0.0000       0.673173        18.3180 
  17   0.0000       0.691375        18.8133 
  18   0.0000       0.727525        19.7970 
  19   0.0000       0.751085        20.4381 
  20   0.0000       0.797913        21.7123 
  21   0.0000       0.906353        24.6631 

                    ********************************
                    * MULLIKEN POPULATION ANALYSIS *
                    ********************************

--------------------------------------------
MULLIKEN ATOMIC CHARGES AND SPIN POPULATIONS
--------------------------------------------
   0 C :   -0.144087    0.726373
   1 C :    0.001323   -0.075354
   2 O :   -0.283031    0.037560
   3 H :    0.037422   -0.252027
   4 H :    0.064447   -0.044703
   5 H :    0.053982   -0.044698
   6 H :    0.066631    0.006559
   7 H :    0.050854    0.005665
   8 H :    0.170728   -0.003392
   9 H :   -0.018267    0.644018
Sum of atomic charges         :   -0.0000000
Sum of atomic spin populations:    1.0000000

-----------------------------------------------------
MULLIKEN REDUCED ORBITAL CHARGES AND SPIN POPULATIONS
-----------------------------------------------------
CHARGE
  0 C s       :     3.210548  s :     3.210548
      pz      :     1.008260  p :     2.933539
      px      :     0.946502
      py      :     0.978777
  1 C s       :     3.169147  s :     3.169147
      pz      :     1.028190  p :     2.829530
      px      :     0.842910
      py      :     0.958429
  2 O s       :     3.837589  s :     3.837589
      pz      :     1.518687  p :     4.445442
      px      :     1.395334
      py      :     1.531421
  3 H s       :     0.962578  s :     0.962578
  4 H s       :     0.935553  s :     0.935553
  5 H s       :     0.946018  s :     0.946018
  6 H s       :     0.933369  s :     0.933369
  7 H s       :     0.949146  s :     0.949146
  8 H s       :     0.829272  s :     0.829272
  9 H s       :     1.018267  s :     1.018267

SPIN
  0 C s       :     0.120629  s :     0.120629
      pz      :     0.044454  p :     0.605744
      px      :     0.367743
      py      :     0.193547
  1 C s       :    -0.015808  s :    -0.015808
      pz      :    -0.005239  p :    -0.059546
      px      :    -0.034552
      py      :    -0.019755
  2 O s       :     0.000822  s :     0.000822
      pz      :     0.001592  p :     0.036738
      px      :     0.034097
      py      :     0.001050
  3 H s       :    -0.252027  s :    -0.252027
  4 H s       :    -0.044703  s :    -0.044703
  5 H s       :    -0.044698  s :    -0.044698
  6 H s       :     0.006559  s :     0.006559
  7 H s       :     0.005665  s :     0.005665
  8 H s       :    -0.003392  s :    -0.003392
  9 H s       :     0.644018  s :     0.644018


                     *******************************
                     * LOEWDIN POPULATION ANALYSIS *
                     *******************************

-------------------------------------------
LOEWDIN ATOMIC CHARGES AND SPIN POPULATIONS
-------------------------------------------
   0 C :   -0.081247    0.663645
   1 C :    0.047551   -0.060067
   2 O :   -0.202873    0.034659
   3 H :    0.046451   -0.177949
   4 H :    0.032266   -0.033603
   5 H :    0.024333   -0.033600
   6 H :    0.030899    0.005311
   7 H :    0.016354    0.004576
   8 H :    0.118544   -0.002762
   9 H :   -0.032277    0.599790

----------------------------------------------------
LOEWDIN REDUCED ORBITAL CHARGES AND SPIN POPULATIONS
----------------------------------------------------
CHARGE
  0 C s       :     3.059385  s :     3.059385
      pz      :     1.034046  p :     3.021862
      px      :     0.978662
      py      :     1.009154
  1 C s       :     3.028272  s :     3.028272
      pz      :     1.047609  p :     2.924177
      px      :     0.889339
      py      :     0.987229
  2 O s       :     3.714372  s :     3.714372
      pz      :     1.529847  p :     4.488501
      px      :     1.414335
      py      :     1.544320
  3 H s       :     0.953549  s :     0.953549
  4 H s       :     0.967734  s :     0.967734
  5 H s       :     0.975667  s :     0.975667
  6 H s       :     0.969101  s :     0.969101
  7 H s       :     0.983646  s :     0.983646
  8 H s       :     0.881456  s :     0.881456
  9 H s       :     1.032277  s :     1.032277

SPIN
  0 C s       :     0.094154  s :     0.094154
      pz      :     0.035615  p :     0.569491
      px      :     0.351677
      py      :     0.182198
  1 C s       :    -0.010645  s :    -0.010645
      pz      :    -0.004120  p :    -0.049422
      px      :    -0.028707
      py      :    -0.016594
  2 O s       :    -0.000174  s :    -0.000174
      pz      :     0.001382  p :     0.034833
      px      :     0.032730
      py      :     0.000721
  3 H s       :    -0.177949  s :    -0.177949
  4 H s       :    -0.033603  s :    -0.033603
  5 H s       :    -0.033600  s :    -0.033600
  6 H s       :     0.005311  s :     0.005311
  7 H s       :     0.004576  s :     0.004576
  8 H s       :    -0.002762  s :    -0.002762
  9 H s       :     0.599790  s :     0.599790


                      *****************************
                      * MAYER POPULATION ANALYSIS *
                      *****************************

  NA   - Mulliken gross atomic population
  ZA   - Total nuclear charge
  QA   - Mulliken gross atomic charge
  VA   - Mayer's total valence
  BVA  - Mayer's bonded valence
  FA   - Mayer's free valence

  ATOM       NA         ZA         QA         VA         BVA        FA
  0 C      6.1441     6.0000    -0.1441     3.9512     3.6038     0.3475
  1 C      5.9987     6.0000     0.0013     3.9322     3.9299     0.0024
  2 O      8.2830     8.0000    -0.2830     1.9962     1.9948     0.0014
  3 H      0.9626     1.0000     0.0374     0.9986     0.9351     0.0635
  4 H      0.9356     1.0000     0.0644     0.9958     0.9938     0.0020
  5 H      0.9460     1.0000     0.0540     0.9971     0.9951     0.0020
  6 H      0.9334     1.0000     0.0666     0.9956     0.9955     0.0000
  7 H      0.9491     1.0000     0.0509     0.9974     0.9974     0.0000
  8 H      0.8293     1.0000     0.1707     0.9709     0.9708     0.0000
  9 H      1.0183     1.0000    -0.0183     0.9997     0.5849     0.4148

  Mayer bond orders larger than 0.1
B(  0-C ,  1-C ) :   0.9889 B(  0-C ,  3-H ) :   0.4900 B(  0-C ,  4-H ) :   0.9775 
B(  0-C ,  5-H ) :   0.9778 B(  0-C ,  9-H ) :   0.1336 B(  1-C ,  2-O ) :   0.9824 
B(  1-C ,  6-H ) :   0.9707 B(  1-C ,  7-H ) :   0.9648 B(  2-O ,  8-H ) :   0.9500 
B(  3-H ,  9-H ) :   0.4379 

-------
TIMINGS
-------

Total SCF time: 0 days 0 hours 0 min 0 sec 

Total time                  ....       0.191 sec
Sum of individual times     ....       0.189 sec  ( 99.1%)

Fock matrix formation       ....       0.188 sec  ( 98.5%)
Diagonalization             ....       0.000 sec  (  0.2%)
Density matrix formation    ....       0.000 sec  (  0.0%)
Population analysis         ....       0.001 sec  (  0.3%)
Initial guess               ....       0.000 sec  (  0.1%)
Orbital Transformation      ....       0.000 sec  (  0.0%)
Orbital Orthonormalization  ....       0.000 sec  (  0.0%)
DIIS solution               ....       0.000 sec  (  0.0%)

-------------------------   --------------------
FINAL SINGLE POINT ENERGY      -152.564335329611
-------------------------   --------------------

                                *** OPTIMIZATION RUN DONE ***

                            ***************************************
                            *     ORCA property calculations      *
                            ***************************************

                                    ---------------------
                                    Active property flags
                                    ---------------------
   (+) Dipole Moment


------------------------------------------------------------------------------
                       ORCA ELECTRIC PROPERTIES CALCULATION
------------------------------------------------------------------------------

Dipole Moment Calculation                       ... on
Quadrupole Moment Calculation                   ... off
Polarizability Calculation                      ... off
GBWName                                         ... TSB_3.gbw
Electron density file                           ... TSB_3.scfp.tmp
The origin for moment calculation is the CENTER OF MASS  = ( 0.001289,  0.004468 -0.014405)

-------------
DIPOLE MOMENT
-------------
                                X             Y             Z
Electronic contribution:      5.79381      -0.77375      -0.42732
Nuclear contribution   :     -6.10222       0.62000       0.83636
                        -----------------------------------------
Total Dipole Moment    :     -0.30841      -0.15375       0.40904
                        -----------------------------------------
Magnitude (a.u.)       :      0.53486
Magnitude (Debye)      :      1.35950


-------------------------------------------------------------------------------
                               ORCA SCF HESSIAN
-------------------------------------------------------------------------------

Hessian of the Hartree-Fock SCF energy:
Hartree-Fock type                                ... UHF
Number of operators                              ...    2
Number of atoms                                  ...   10
Basis set dimensions                             ...   22
Integral neglect threshold                       ... 2.5e-11
Integral primitive cutoff                        ... 2.5e-12

Nuclear repulsion Hessian                        ... done   (      0.0 sec)

----------------------------------------------
Forming right-hand sides of CP-SCF equations     ...
----------------------------------------------
One electron integral derivatives                ... done   (      0.1 sec)
Transforming the overlap derivative matrices     ... done   (      0.0 sec)
Making the Q(x) pseudodensities                  ... done   (      0.0 sec)
Adding the E*S(x)*S(y) terms to the Hessian      ... done   (      0.0 sec)
Calculating energy weighted overlap derivatives  ... done   (      0.0 sec)
Two electron integral derivatives                ... done   (      0.1 sec)
tr(F(y)Q(x)) contribution to the Hessian         ... done   (      0.0 sec)
Response fock operator R(S(x))                   ... done   (      0.1 sec)
tr(F(y)S(x)) contribution to the Hessian         ... done   (      0.0 sec)
Transforming and finalizing RHSs                 ... done   (      0.0 sec)

----------------------------------------------
Solving the CP-SCF equations                     ...
----------------------------------------------
     CP-SCF ITERATION   0: 
     CP-SCF ITERATION   1:      0.000880897544
     CP-SCF ITERATION   2:      0.000077242370
     CP-SCF ITERATION   3:      0.000008640048
     CP-SCF ITERATION   4:      0.000001356790
     CP-SCF ITERATION   5:      0.000000213971
     CP-SCF ITERATION   6:      0.000000024407
     CP-SCF ITERATION   7:      0.000000007349

                                                 ... done   (      0.9 sec)
Forming perturbed density Hessian contributions  ... done   (      0.0 sec)
Making the perturbed densities                   ... done   (      0.0 sec)
2nd integral derivative contribs                 ... done   (      0.4 sec)
Dipol derivatives                                ... done   (      0.1 sec)

Total SCF Hessian time: 0 days 0 hours 0 min 1 sec 

Writing the Hessian file to the disk             ... done


-----------------------
VIBRATIONAL FREQUENCIES
-----------------------

   0:         0.00 cm**-1
   1:         0.00 cm**-1
   2:         0.00 cm**-1
   3:         0.00 cm**-1
   4:         0.00 cm**-1
   5:         0.00 cm**-1
   6:     -2764.17 cm**-1 ***imaginary mode***
   7:       143.34 cm**-1
   8:       333.08 cm**-1
   9:       373.06 cm**-1
  10:       519.82 cm**-1
  11:       713.79 cm**-1
  12:       954.63 cm**-1
  13:      1135.39 cm**-1
  14:      1246.20 cm**-1
  15:      1266.62 cm**-1
  16:      1333.93 cm**-1
  17:      1507.80 cm**-1
  18:      1569.09 cm**-1
  19:      1593.83 cm**-1
  20:      1627.01 cm**-1
  21:      1730.87 cm**-1
  22:      1781.59 cm**-1
  23:      1784.80 cm**-1
  24:      1816.53 cm**-1
  25:      3561.06 cm**-1
  26:      3615.17 cm**-1
  27:      3683.84 cm**-1
  28:      3759.34 cm**-1
  29:      4222.18 cm**-1


------------
NORMAL MODES
------------

These modes are the cartesian displacements weighted by the diagonal matrix
M(i,i)=1/sqrt(m[i]) where m[i] is the mass of the displaced atom
Thus, these vectors are normalized but *not* orthogonal

                  0          1          2          3          4          5    
      0       0.000000   0.000000   0.000000   0.000000   0.000000   0.000000
      1       0.000000   0.000000   0.000000   0.000000   0.000000   0.000000
      2       0.000000   0.000000   0.000000   0.000000   0.000000   0.000000
      3       0.000000   0.000000   0.000000   0.000000   0.000000   0.000000
      4       0.000000   0.000000   0.000000   0.000000   0.000000   0.000000
      5       0.000000   0.000000   0.000000   0.000000   0.000000   0.000000
      6       0.000000   0.000000   0.000000   0.000000   0.000000   0.000000
      7       0.000000   0.000000   0.000000   0.000000   0.000000   0.000000
      8       0.000000   0.000000   0.000000   0.000000   0.000000   0.000000
      9       0.000000   0.000000   0.000000   0.000000   0.000000   0.000000
     10       0.000000   0.000000   0.000000   0.000000   0.000000   0.000000
     11       0.000000   0.000000   0.000000   0.000000   0.000000   0.000000
     12       0.000000   0.000000   0.000000   0.000000   0.000000   0.000000
     13       0.000000   0.000000   0.000000   0.000000   0.000000   0.000000
     14       0.000000   0.000000   0.000000   0.000000   0.000000   0.000000
     15       0.000000   0.000000   0.000000   0.000000   0.000000   0.000000
     16       0.000000   0.000000   0.000000   0.000000   0.000000   0.000000
     17       0.000000   0.000000   0.000000   0.000000   0.000000   0.000000
     18       0.000000   0.000000   0.000000   0.000000   0.000000   0.000000
     19       0.000000   0.000000   0.000000   0.000000   0.000000   0.000000
     20       0.000000   0.000000   0.000000   0.000000   0.000000   0.000000
     21       0.000000   0.000000   0.000000   0.000000   0.000000   0.000000
     22       0.000000   0.000000   0.000000   0.000000   0.000000   0.000000
     23       0.000000   0.000000   0.000000   0.000000   0.000000   0.000000
     24       0.000000   0.000000   0.000000   0.000000   0.000000   0.000000
     25       0.000000   0.000000   0.000000   0.000000   0.000000   0.000000
     26       0.000000   0.000000   0.000000   0.000000   0.000000   0.000000
     27       0.000000   0.000000   0.000000   0.000000   0.000000   0.000000
     28       0.000000   0.000000   0.000000   0.000000   0.000000   0.000000
     29       0.000000   0.000000   0.000000   0.000000   0.000000   0.000000
                  6          7          8          9         10         11    
      0       0.054037  -0.001609  -0.059946  -0.000771  -0.191199   0.000379
      1      -0.032929   0.003686  -0.070851   0.030002   0.083335  -0.005557
      2      -0.002844  -0.058504  -0.010132  -0.016794   0.010015   0.079362
      3      -0.004133  -0.001546  -0.033504   0.014662   0.042675  -0.000118
      4       0.003957   0.006467  -0.095519   0.012487  -0.130367  -0.000364
      5       0.000393  -0.098488   0.004199   0.044123  -0.019277  -0.001578
      6      -0.000101   0.005508   0.048441  -0.032333   0.184069   0.002046
      7      -0.000754  -0.012710   0.069445  -0.063412   0.066473   0.002597
      8      -0.000111   0.083535  -0.005670  -0.048024   0.013012   0.000589
      9      -0.773055   0.002747   0.143251  -0.054072  -0.220138   0.001320
     10       0.507637  -0.024956   0.218751  -0.045556   0.063168  -0.015871
     11       0.043015   0.357020   0.004752  -0.026953   0.008214   0.223727
     12      -0.061307  -0.203202  -0.151022   0.048474  -0.363448  -0.253010
     13       0.023721   0.194875  -0.035354   0.088676   0.065579   0.441791
     14      -0.021998  -0.156919  -0.024423  -0.054232   0.029622  -0.165240
     15      -0.060868   0.195847  -0.163838  -0.010093  -0.338548   0.246575
     16       0.020655  -0.173417  -0.062346  -0.035751   0.101326  -0.415126
     17       0.025323  -0.186877  -0.010983  -0.070473   0.016884  -0.231269
     18      -0.000351   0.057552  -0.094890   0.015060   0.060404  -0.065987
     19       0.001207  -0.092987  -0.081130   0.051843  -0.117968  -0.119726
     20      -0.001092  -0.185464   0.019679   0.077099  -0.010932  -0.097621
     21      -0.000108  -0.063348  -0.085931   0.067500   0.043669   0.059782
     22       0.000748   0.117010  -0.106529  -0.031792  -0.115318   0.131805
     23       0.001046  -0.171081   0.007873   0.070815  -0.027951  -0.081043
     24       0.002050  -0.045924   0.262265   0.430967   0.221693  -0.018705
     25      -0.000396   0.108824   0.262120   0.663706  -0.067858  -0.034313
     26       0.001428   0.179255   0.138560   0.505015  -0.089144  -0.027500
     27       0.300598   0.006488   0.434826  -0.150156  -0.555414  -0.005555
     28      -0.196382  -0.048588   0.684655  -0.190927  -0.423564   0.040769
     29      -0.016750   0.708868   0.025231  -0.064672  -0.022858  -0.557250
                 12         13         14         15         16         17    
      0      -0.001882  -0.200916   0.019844   0.032042   0.049921  -0.004097
      1      -0.004091  -0.133291  -0.100453   0.065178   0.004030   0.010800
      2      -0.009141   0.003340   0.019132   0.064460  -0.048629  -0.097768
      3      -0.001183   0.039714   0.072097  -0.117589  -0.169691   0.026542
      4       0.011859   0.216730   0.085350  -0.025962   0.118357  -0.020792
      5      -0.082510   0.008965  -0.027370  -0.092309   0.090178   0.074311
      6       0.009573   0.117471  -0.011113   0.094291   0.137246   0.000436
      7      -0.007067  -0.061586  -0.001868  -0.038806  -0.105819   0.008358
      8       0.019787  -0.011060   0.001133   0.011464  -0.032289   0.004692
      9      -0.000466  -0.475613   0.342698  -0.034614   0.218446  -0.028642
     10      -0.019629  -0.379527   0.181162   0.015231   0.081187  -0.009220
     11       0.185487  -0.051811  -0.050096  -0.117975   0.092030   0.134434
     12      -0.412947   0.220436  -0.392479   0.451055  -0.375027  -0.222456
     13      -0.168611  -0.202039   0.079771   0.238122  -0.041804  -0.237425
     14       0.114065  -0.002982  -0.058479  -0.057230   0.012437   0.052799
     15       0.402481   0.078751  -0.645004  -0.088710   0.000925   0.264334
     16       0.137897  -0.273691  -0.077874  -0.095390   0.204934   0.193229
     17       0.130647  -0.069928  -0.005382  -0.077021   0.098171   0.059386
     18       0.104134   0.086253  -0.156199  -0.610879  -0.248573  -0.586682
     19       0.415048   0.262380   0.171102   0.178019  -0.067275  -0.213018
     20       0.252148   0.030848   0.051488   0.117613  -0.060013  -0.039030
     21      -0.096522   0.238825   0.167392   0.122119  -0.635122   0.527084
     22      -0.437440   0.221822  -0.008667  -0.296487   0.301653   0.156599
     23       0.196200   0.025647   0.042812   0.076717  -0.046678  -0.011010
     24      -0.113489  -0.084175  -0.279932  -0.309210   0.219750  -0.198565
     25       0.075458  -0.007744   0.096610   0.089584  -0.128228   0.067949
     26       0.087246   0.050248   0.082492   0.137715  -0.023569   0.058495
     27       0.001398  -0.008166   0.044364  -0.007005   0.068367  -0.029455
     28       0.016877   0.362059  -0.232483   0.019580  -0.129228   0.028295
     29      -0.187768   0.046915   0.017359   0.070060  -0.054955  -0.050044
                 18         19         20         21         22         23    
      0      -0.056933   0.005315  -0.013915  -0.017316  -0.136429   0.038432
      1      -0.050527   0.007878  -0.024431  -0.002160  -0.013949  -0.099649
      2      -0.007016  -0.039427  -0.010785  -0.000618   0.000439  -0.007226
      3       0.010816   0.002512  -0.163283  -0.043265   0.089634   0.010052
      4       0.017017  -0.003203   0.009685  -0.039710  -0.000654   0.023921
      5       0.003641  -0.009410  -0.020577   0.071823  -0.007744  -0.002560
      6       0.004103   0.001062   0.016117   0.051982  -0.014558  -0.005528
      7      -0.003270   0.001204  -0.002088   0.015126   0.000964  -0.000778
      8      -0.003930  -0.002842   0.024051  -0.062838   0.006198   0.003790
      9       0.300687  -0.028057   0.209674   0.035468   0.166323  -0.115057
     10       0.736245  -0.137702   0.078787  -0.012891  -0.051973   0.016255
     11       0.140410   0.818838   0.044006  -0.029793  -0.006018  -0.002139
     12       0.331204   0.303590   0.025118   0.014813   0.219082   0.022115
     13      -0.162150  -0.088574   0.119302   0.095555   0.310558   0.454351
     14       0.021258  -0.001150  -0.091866  -0.054798  -0.205187  -0.330092
     15       0.261904  -0.366181   0.024242   0.084576   0.224066   0.031455
     16      -0.136174   0.123966   0.141525   0.093221   0.274408   0.400096
     17      -0.041807   0.028717   0.113673   0.079563   0.244422   0.389500
     18       0.004994   0.037326   0.386464   0.452886  -0.236292  -0.023350
     19       0.025930   0.010356   0.115451  -0.189682   0.028215  -0.105837
     20       0.009678  -0.002220   0.023998  -0.065578   0.036956  -0.108163
     21      -0.055913  -0.049586   0.719450  -0.053721  -0.203665   0.002226
     22       0.033710  -0.023691   0.060001   0.043380   0.009063  -0.132262
     23      -0.007915  -0.001930  -0.008619   0.017644  -0.027202   0.092957
     24      -0.032750  -0.034028   0.277977  -0.741393   0.059345   0.043783
     25       0.008905   0.015456  -0.110852   0.300610  -0.022457  -0.017014
     26       0.007476   0.009120  -0.062413   0.202312  -0.021384  -0.012188
     27      -0.325734   0.026827   0.212699   0.104180   0.559801  -0.451151
     28      -0.055266   0.025367  -0.195364  -0.071360  -0.389116   0.299107
     29      -0.026497  -0.224341  -0.026812  -0.000439  -0.032915   0.026571
                 24         25         26         27         28         29    
      0      -0.021293   0.001672  -0.008744   0.000062  -0.000869  -0.000080
      1       0.017825   0.003232  -0.068522   0.000071   0.003577   0.000286
      2       0.001962   0.000872  -0.000340  -0.007863  -0.097649  -0.000053
      3      -0.005651   0.003707   0.002691   0.001906  -0.000071  -0.004142
      4       0.092834  -0.069021   0.000441  -0.022002   0.001127   0.000850
      5       0.000711  -0.023550  -0.001090   0.093199  -0.006599   0.003029
      6       0.000630   0.000392   0.000064   0.000198   0.000007   0.005223
      7      -0.000906  -0.000011   0.000006   0.001029  -0.000140  -0.040035
      8       0.004893  -0.000389   0.000033  -0.001481   0.000213   0.048472
      9       0.049134  -0.002491   0.001249  -0.000258   0.000125  -0.000902
     10       0.013666  -0.000433   0.001886  -0.000023   0.000169   0.000354
     11       0.003154   0.000132   0.000391  -0.000892   0.000800  -0.000128
     12       0.008354   0.002892   0.041711   0.000169   0.040062  -0.000215
     13      -0.089268  -0.006799   0.329646   0.030014   0.369116  -0.000844
     14       0.063868  -0.017794   0.582598   0.053030   0.634742  -0.000909
     15      -0.001780   0.002441   0.040877   0.003164  -0.031429   0.001066
     16      -0.081901  -0.002955   0.452277  -0.024762  -0.413503   0.000847
     17      -0.077305   0.008423  -0.581684   0.034837   0.521458  -0.000083
     18       0.015552  -0.029846   0.001382  -0.040734  -0.001232   0.000311
     19      -0.476656   0.350360   0.004686   0.533539  -0.038325   0.007803
     20      -0.480633  -0.422802  -0.002458  -0.637895   0.043972  -0.010944
     21       0.046955  -0.036962   0.000544   0.020723   0.002669  -0.001540
     22      -0.554756   0.438368   0.014062  -0.285684   0.027108  -0.002308
     23       0.407183   0.705814   0.017845  -0.457756   0.040141  -0.008477
     24       0.069431  -0.006530  -0.001020  -0.009427   0.001562  -0.031551
     25      -0.027252   0.005505   0.000166  -0.008272   0.001207   0.616203
     26      -0.017866   0.002617  -0.000891   0.015328  -0.002184  -0.784236
     27       0.123405   0.000188  -0.013636  -0.000229  -0.000663   0.000235
     28      -0.088044   0.000044   0.008413   0.000171   0.000409  -0.000156
     29      -0.007913   0.000017   0.000722   0.000005  -0.000115  -0.000027


-----------
IR SPECTRUM
-----------

 Mode    freq (cm**-1)   T**2         TX         TY         TZ
-------------------------------------------------------------------
   7:       143.34    1.697938  ( -0.386020   1.043897  -0.677647)
   8:       333.08    2.103092  (  0.730572   0.297905   1.216803)
   9:       373.06   85.144639  (  4.751779   6.114284   5.018044)
  10:       519.82    3.810684  ( -0.842628  -1.657335  -0.594896)
  11:       713.79    0.884672  ( -0.366505  -0.229160  -0.835363)
  12:       954.63    1.941329  ( -0.868591   0.998487   0.435777)
  13:      1135.39    1.675558  ( -0.641695   1.123980  -0.021288)
  14:      1246.20    2.966690  (  0.043149   1.721048   0.053115)
  15:      1266.62   19.076018  ( -4.040282   1.070030  -1.267744)
  16:      1333.93    3.325739  ( -0.418226   1.532818   0.895152)
  17:      1507.80    2.289438  ( -1.363355   0.396909  -0.522650)
  18:      1569.09    0.994939  (  0.160275   0.963849   0.200617)
  19:      1593.83    2.416562  ( -0.002570  -0.240793   1.535765)
  20:      1627.01   11.312958  ( -3.017643  -0.724328  -1.296973)
  21:      1730.87   25.690999  ( -4.797331   1.634487   0.071194)
  22:      1781.59    4.582834  (  1.984801  -0.791303   0.131298)
  23:      1784.80    0.519041  ( -0.613807   0.153853  -0.344400)
  24:      1816.53    0.883320  (  0.782848   0.171428  -0.491000)
  25:      3561.06    8.507153  ( -0.170716  -2.615772  -1.278964)
  26:      3615.17    1.813751  ( -1.135137  -0.634137   0.350833)
  27:      3683.84    3.035743  ( -0.030825   0.477483   1.675352)
  28:      3759.34    1.416143  ( -0.036412   0.279304  -1.156203)
  29:      4222.18   25.622646  ( -1.039162  -2.707689   4.148640)

The first frequency considered to be a vibration is 7
The total number of vibrations considered is 23


--------------------------
THERMOCHEMISTRY AT 298.15K
--------------------------

Temperature         ... 298.15 K
Pressure            ... 1.00 atm
Total Mass          ... 47.08 AMU

Throughout the following assumptions are being made:
  (1) The electronic state is orbitally nondegenerate
      but the spin degeneracy is treated
  (2) There are no thermally accessible electronically excited states
  (3) Hindered rotations indicated by low frequency modes are not
      treated as such but are treated as vibrations and this may
      cause some error
  (4) All equations used are the standard statistical mechanics
      equations for an ideal gas
  (5) All vibrations are strictly harmonic

freq.     143.34  E(vib)   ...       0.41 
freq.     333.08  E(vib)   ...       0.24 
freq.     373.06  E(vib)   ...       0.21 
freq.     519.82  E(vib)   ...       0.13 
freq.     713.79  E(vib)   ...       0.07 
freq.     954.63  E(vib)   ...       0.03 
freq.    1135.39  E(vib)   ...       0.01 
freq.    1246.20  E(vib)   ...       0.01 
freq.    1266.62  E(vib)   ...       0.01 
freq.    1333.93  E(vib)   ...       0.01 
freq.    1507.80  E(vib)   ...       0.00 
freq.    1569.09  E(vib)   ...       0.00 
freq.    1593.83  E(vib)   ...       0.00 
freq.    1627.01  E(vib)   ...       0.00 
freq.    1730.87  E(vib)   ...       0.00 
freq.    1781.59  E(vib)   ...       0.00 
freq.    1784.80  E(vib)   ...       0.00 
freq.    1816.53  E(vib)   ...       0.00 
freq.    3561.06  E(vib)   ...       0.00 
freq.    3615.17  E(vib)   ...       0.00 
freq.    3683.84  E(vib)   ...       0.00 
freq.    3759.34  E(vib)   ...       0.00 
freq.    4222.18  E(vib)   ...       0.00 

------------
INNER ENERGY
------------

The inner energy is: U= E(el) + E(ZPE) + E(vib) + E(rot) + E(trans)
    E(el)   - is the total energy from the electronic structure calculation
              = E(kin-el) + E(nuc-el) + E(el-el) + E(nuc-nuc)
    E(ZPE)  - the the zero temperature vibrational energy from the frequency calculation
    E(vib)  - the the finite temperature correction to E(ZPE) due to population
              of excited vibrational states
    E(rot)  - is the rotational thermal energy
    E(trans)- is the translational thermal energy

Summary of contributions to the inner energy U:
Electronic energy                ...   -152.56433533 Eh
Zero point energy                ...      0.09174862 Eh      57.57 kcal/mol
Thermal vibrational correction   ...      0.00181188 Eh       1.14 kcal/mol
Thermal rotational correction    ...      0.00141627 Eh       0.89 kcal/mol
Thermal translational correction ...      0.00141627 Eh       0.89 kcal/mol
-----------------------------------------------------------------------
Total thermal energy                   -152.46794229 Eh


Summary of corrections to the electronic energy:
(perhaps to be used in another calculation)
Total thermal correction                  0.00464442 Eh       2.91 kcal/mol
Non-thermal (ZPE) correction              0.09174862 Eh      57.57 kcal/mol
-----------------------------------------------------------------------
Total correction                          0.09639304 Eh      60.49 kcal/mol


--------
ENTHALPY
--------

The enthalpy is H = U + kB*T
                kB is Boltzmann's constant
Total free energy                 ...   -152.46794229 Eh 
Thermal Enthalpy correction       ...      0.00094421 Eh       0.59 kcal/mol
-----------------------------------------------------------------------
Total Enthalpy                    ...   -152.46699808 Eh


Vibrational entropy computed according to the QRRHO of S. Grimme
Chem.Eur.J. 2012 18 9955


-------
ENTROPY
-------

The entropy contributions are T*S = T*(S(el)+S(vib)+S(rot)+S(trans)
     S(el)   - electronic entropy
     S(vib)  - vibrational entropy
     S(rot)  - rotational entropy
     S(trans)- translational entropy
The entropies will be listed as mutliplied by the temperature to get
units of energy

Electronic entropy                ...      0.00065446 Eh      0.41 kcal/mol
Vibrational entropy               ...      0.00296172 Eh      1.86 kcal/mol
Rotational entropy                ...      0.00979513 Eh      6.15 kcal/mol
Translational entropy             ...      0.01780424 Eh     11.17 kcal/mol
-----------------------------------------------------------------------
Final entropy term                ...      0.03121554 Eh     19.59 kcal/mol


CAUTION: The rotational entropy is not quite correctly treated here
         because it includes a symmetry number that is not yet correctly
         implemented in ORCA!
For a nonlinear molecule the correct rotational entropy is:
    S(rot) = R*(ln(qrot/sn)+1.5)
    R    = 8.31441 J/mol/K = 1.987191683e-3 kcal/mol/K
    qrot = 21435.7559425
    sn is the rotational symmetry number. We have assumed 3 here
       if it is different for your molecule then you should correct
       the printed rotational entropy by manually evaluating the equation
       as given above

For convenience we print out the resulting values for sn=1 - 12:
 sn= 1  qrot/sn=   21435.7559 T*S(rot)=     6.80 kcal/mol T*S(tot)=    20.24 kcal/mol
 sn= 2  qrot/sn=   10717.8780 T*S(rot)=     6.39 kcal/mol T*S(tot)=    19.83 kcal/mol
 sn= 3  qrot/sn=    7145.2520 T*S(rot)=     6.15 kcal/mol T*S(tot)=    19.59 kcal/mol
 sn= 4  qrot/sn=    5358.9390 T*S(rot)=     5.98 kcal/mol T*S(tot)=    19.42 kcal/mol
 sn= 5  qrot/sn=    4287.1512 T*S(rot)=     5.84 kcal/mol T*S(tot)=    19.29 kcal/mol
 sn= 6  qrot/sn=    3572.6260 T*S(rot)=     5.74 kcal/mol T*S(tot)=    19.18 kcal/mol
 sn= 7  qrot/sn=    3062.2508 T*S(rot)=     5.64 kcal/mol T*S(tot)=    19.09 kcal/mol
 sn= 8  qrot/sn=    2679.4695 T*S(rot)=     5.57 kcal/mol T*S(tot)=    19.01 kcal/mol
 sn= 9  qrot/sn=    2381.7507 T*S(rot)=     5.50 kcal/mol T*S(tot)=    18.94 kcal/mol
 sn=10  qrot/sn=    2143.5756 T*S(rot)=     5.43 kcal/mol T*S(tot)=    18.87 kcal/mol
 sn=11  qrot/sn=    1948.7051 T*S(rot)=     5.38 kcal/mol T*S(tot)=    18.82 kcal/mol
 sn=12  qrot/sn=    1786.3130 T*S(rot)=     5.33 kcal/mol T*S(tot)=    18.77 kcal/mol


-------------------
GIBBS FREE ENTHALPY
-------------------

The Gibbs free enthalpy is G = H - T*S

Total enthalpy                    ...   -152.46699808 Eh 
Total entropy correction          ...     -0.03121554 Eh    -19.59 kcal/mol
-----------------------------------------------------------------------
Final Gibbs free enthalpy         ...   -152.49821362 Eh

For completeness - the Gibbs free enthalpy minus the electronic energy
G-E(el)                           ...      0.06612171 Eh     41.49 kcal/mol


Timings for individual modules:

Sum of individual times         ...        4.059 sec (=   0.068 min)
GTO integral calculation        ...        0.302 sec (=   0.005 min)   7.4 %
SCF iterations                  ...        1.890 sec (=   0.031 min)  46.6 %
SCF Gradient evaluation         ...        0.140 sec (=   0.002 min)   3.5 %
Geometry relaxation             ...        0.023 sec (=   0.000 min)   0.6 %
Analytical frequency calculation...        1.704 sec (=   0.028 min)  42.0 %
                             ****ORCA TERMINATED NORMALLY****
TOTAL RUN TIME: 0 days 0 hours 0 minutes 4 seconds 186 msec
