
                                 *****************
                                 * O   R   C   A *
                                 *****************

           --- An Ab Initio, DFT and Semiempirical electronic structure package ---

                  #######################################################
                  #                        -***-                        #
                  #  Department of molecular theory and spectroscopy    #
                  #              Directorship: Frank Neese              #
                  # Max Planck Institute for Chemical Energy Conversion #
                  #                  D-45470 Muelheim/Ruhr              #
                  #                       Germany                       #
                  #                                                     #
                  #                  All rights reserved                #
                  #                        -***-                        #
                  #######################################################


                         Program Version 4.0.1.2 - RELEASE -


 With contributions from (in alphabetic order):
   Daniel Aravena         : Magnetic Properties
   Michael Atanasov       : Ab Initio Ligand Field Theory
   Ute Becker             : Parallelization
   Martin Brehm           : Molecular dynamics
   Dmytro Bykov           : SCF Hessian
   Vijay G. Chilkuri      : MRCI spin determinant printing
   Dipayan Datta          : RHF DLPNO-CCSD density
   Achintya Kumar Dutta   : EOM-CC, STEOM-CC
   Dmitry Ganyushin       : Spin-Orbit,Spin-Spin,Magnetic field MRCI
   Yang Guo               : DLPNO-NEVPT2, CIM, IAO-localization
   Andreas Hansen         : Spin unrestricted coupled pair/coupled cluster methods
   Lee Huntington         : MR-EOM, pCC
   Robert Izsak           : Overlap fitted RIJCOSX, COSX-SCS-MP3, EOM
   Christian Kollmar      : KDIIS, OOCD, Brueckner-CCSD(T), CCSD density
   Simone Kossmann        : Meta GGA functionals, TD-DFT gradient, OOMP2, MP2 Hessian
   Martin Krupicka        : AUTO-CI
   Dagmar Lenk            : GEPOL surface
   Dimitrios Liakos       : Extrapolation schemes; parallel MDCI
   Dimitrios Manganas     : ROCIS; embedding schemes
   Dimitrios Pantazis     : SARC Basis sets
   Taras Petrenko         : DFT Hessian,TD-DFT gradient, ASA, ECA, R-Raman, ABS, FL, XAS/XES, NRVS
   Peter Pinski           : DLPNO-MP2
   Christoph Reimann      : Effective Core Potentials
   Marius Retegan         : Local ZFS, SOC
   Christoph Riplinger    : Optimizer, TS searches, QM/MM, DLPNO-CCSD(T), (RO)-DLPNO pert. Triples
   Tobias Risthaus        : Range-separated hybrids, TD-DFT gradient, RPA, STAB
   Michael Roemelt        : Restricted open shell CIS
   Masaaki Saitow         : Open-shell DLPNO
   Barbara Sandhoefer     : DKH picture change effects
   Kantharuban Sivalingam : CASSCF convergence, NEVPT2, FIC-MRCI
   Georgi Stoychev        : AutoAux
   Boris Wezisla          : Elementary symmetry handling
   Frank Wennmohs         : Technical directorship


 We gratefully acknowledge several colleagues who have allowed us to
 interface, adapt or use parts of their codes:
   Stefan Grimme, W. Hujo, H. Kruse,             : VdW corrections, initial TS optimization,
                  C. Bannwarth                     DFT functionals, gCP, sTDA/sTD-DF
   Ed Valeev                                     : LibInt (2-el integral package), F12 methods
   Garnet Chan, S. Sharma, J. Yang, R. Olivares  : DMRG
   Ulf Ekstrom                                   : XCFun DFT Library
   Mihaly Kallay                                 : mrcc  (arbitrary order and MRCC methods)
   Andreas Klamt, Michael Diedenhofen            : otool_cosmo (COSMO solvation model)
   Jiri Pittner, Ondrej Demel                    : Mk-CCSD
   Frank Weinhold                                : gennbo (NPA and NBO analysis)
   Christopher J. Cramer and Donald G. Truhlar   : smd solvation model


 Your calculation uses the libint2 library for the computation of 2-el integrals
 For citations please refer to: http://libint.valeyev.net

 This ORCA versions uses:
   CBLAS   interface :  Fast vector & matrix operations
   LAPACKE interface :  Fast linear algebra routines
   SCALAPACK package :  Parallel linear algebra routines


Your calculation utilizes the basis: STO-3G
   H-Ne       : W. J. Hehre, R. F. Stewart and J. A. Pople, J. Chem. Phys. 2657 (1969).
   Na-Ar      : W. J. Hehre, R. Ditchfield, R. F. Stewart and J. A. Pople, J. Chem. Phys. 2769 (1970).
   K,Ca,Ga-Kr : W. J. Pietro, B. A. Levy, W. J. Hehre and R. F. Stewart, J. Am. Chem. Soc. 19, 2225 (1980).
   Sc-Zn,Y-Cd : W. J. Pietro and W. J. Hehre, J. Comp. Chem. 4, 241 (1983).

================================================================================
                                        WARNINGS
                       Please study these warnings very carefully!
================================================================================

Warning: TCutStore was < 0. Adjusted to Thresh (uncritical)

WARNING: your system is open-shell and RHF/RKS was chosen
  ===> : WILL SWITCH to UHF/UKS


WARNING: Geometry Optimization
  ===> : Switching off AutoStart
         For restart on a previous wavefunction, please use MOREAD

INFO   : the flag for use of LIBINT has been found!

================================================================================
                                       INPUT FILE
================================================================================
NAME = TSB_5.inp
|  1> %pal nprocs 1 end
|  2> ! hf sto-3g TightSCF
|  3> ! Opt Freq
|  4> * xyz 0 2
|  5>   6     1.072165 -0.649356 -0.000002
|  6>   6     0.101311 0.539751 0.000000
|  7>   8     -1.242419 0.027818 0.000009
|  8>   1     2.275362 -0.179629 -0.000001
|  9>   1     0.991995 -1.258659 0.895038
| 10>   1     0.991996 -1.258657 -0.895044
| 11>   1     0.286083 1.163306 0.883834
| 12>   1     0.286073 1.163300 -0.883841
| 13>   1     -1.806459 0.842644 0.000007
| 14>   1     3.141144 0.160845 0.000000
| 15> *
| 16> 
| 17> 
| 18>                          ****END OF INPUT****
================================================================================

                       *****************************
                       * Geometry Optimization Run *
                       *****************************

Geometry optimization settings:
Update method            Update   .... BFGS
Choice of coordinates    CoordSys .... Redundant Internals
Initial Hessian          InHess   .... Almoef's Model

Convergence Tolerances:
Energy Change            TolE     ....  5.0000e-06 Eh
Max. Gradient            TolMAXG  ....  3.0000e-04 Eh/bohr
RMS Gradient             TolRMSG  ....  1.0000e-04 Eh/bohr
Max. Displacement        TolMAXD  ....  4.0000e-03 bohr
RMS Displacement         TolRMSD  ....  2.0000e-03 bohr

------------------------------------------------------------------------------
                        ORCA OPTIMIZATION COORDINATE SETUP
------------------------------------------------------------------------------

The optimization will be done in new redundant internal coordinates
Making redundant internal coordinates   ...  (new redundants) done
Evaluating the initial hessian          ...  (Almloef) done
Evaluating the coordinates              ...  done
Calculating the B-matrix                .... done
Calculating the G-matrix                .... done
Diagonalizing the G-matrix              .... done
The first mode is                       ....   12
The number of degrees of freedom        ....   24

    -----------------------------------------------------------------
                    Redundant Internal Coordinates


    -----------------------------------------------------------------
         Definition                    Initial Value    Approx d2E/dq
    -----------------------------------------------------------------
      1. B(C   1,C   0)                  1.5351         0.366640   
      2. B(O   2,C   1)                  1.4379         0.469226   
      3. B(H   3,C   0)                  1.2916         0.171682   
      4. B(H   4,C   0)                  1.0857         0.365815   
      5. B(H   5,C   0)                  1.0857         0.365815   
      6. B(H   6,C   1)                  1.0973         0.350538   
      7. B(H   7,C   1)                  1.0973         0.350537   
      8. B(H   8,O   2)                  0.9910         0.463988   
      9. B(H   9,H   3)                  0.9303         0.123946   
     10. A(C   1,C   0,H   5)          112.8309         0.324160   
     11. A(H   3,C   0,H   4)          105.8354         0.260294   
     12. A(H   3,C   0,H   5)          105.8354         0.260294   
     13. A(C   1,C   0,H   4)          112.8308         0.324160   
     14. A(H   4,C   0,H   5)          111.0514         0.292283   
     15. A(C   1,C   0,H   3)          107.9045         0.287154   
     16. A(C   0,C   1,O   2)          108.3743         0.374289   
     17. A(H   6,C   1,H   7)          107.3068         0.288395   
     18. A(O   2,C   1,H   7)          111.0788         0.333248   
     19. A(C   0,C   1,H   7)          109.4924         0.321900   
     20. A(O   2,C   1,H   6)          111.0789         0.333248   
     21. A(C   0,C   1,H   6)          109.4924         0.321900   
     22. A(C   1,O   2,H   8)          103.8360         0.346218   
     23. L(C   0,H   3,H   9,C   1, 2) 180.0000         0.196209   
     24. L(C   0,H   3,H   9,C   1, 1) 179.8581         0.196209   
     25. D(H   6,C   1,C   0,H   5)   -175.2561         0.010758   
     26. D(O   2,C   1,C   0,H   4)    -63.4384         0.010758   
     27. D(H   6,C   1,C   0,H   3)    -58.6949         0.010758   
     28. D(O   2,C   1,C   0,H   3)   -179.9996         0.010758   
     29. D(O   2,C   1,C   0,H   5)     63.4392         0.010758   
     30. D(H   7,C   1,C   0,H   3)     58.6958         0.010758   
     31. D(H   7,C   1,C   0,H   4)    175.2570         0.010758   
     32. D(H   7,C   1,C   0,H   5)    -57.8654         0.010758   
     33. D(H   6,C   1,C   0,H   4)     57.8663         0.010758   
     34. D(H   8,O   2,C   1,H   7)    -59.6784         0.017354   
     35. D(H   8,O   2,C   1,H   6)     59.6787         0.017354   
     36. D(H   8,O   2,C   1,C   0)   -179.9998         0.017354   
    -----------------------------------------------------------------

Number of atoms                         .... 10
Number of degrees of freedom            .... 36

         *************************************************************
         *                GEOMETRY OPTIMIZATION CYCLE   1            *
         *************************************************************
---------------------------------
CARTESIAN COORDINATES (ANGSTROEM)
---------------------------------
  C      1.072165   -0.649356   -0.000002
  C      0.101311    0.539751    0.000000
  O     -1.242419    0.027818    0.000009
  H      2.275362   -0.179629   -0.000001
  H      0.991995   -1.258659    0.895038
  H      0.991996   -1.258657   -0.895044
  H      0.286083    1.163306    0.883834
  H      0.286073    1.163300   -0.883841
  H     -1.806459    0.842644    0.000007
  H      3.141144    0.160845    0.000000

----------------------------
CARTESIAN COORDINATES (A.U.)
----------------------------
  NO LB      ZA    FRAG     MASS         X           Y           Z
   0 C     6.0000    0    12.011    2.026098   -1.227105   -0.000004
   1 C     6.0000    0    12.011    0.191450    1.019982    0.000000
   2 O     8.0000    0    15.999   -2.347832    0.052568    0.000017
   3 H     1.0000    0     1.008    4.299811   -0.339450   -0.000002
   4 H     1.0000    0     1.008    1.874599   -2.378521    1.691377
   5 H     1.0000    0     1.008    1.874601   -2.378517   -1.691388
   6 H     1.0000    0     1.008    0.540619    2.198330    1.670204
   7 H     1.0000    0     1.008    0.540600    2.198318   -1.670217
   8 H     1.0000    0     1.008   -3.413713    1.592366    0.000013
   9 H     1.0000    0     1.008    5.935902    0.303953    0.000000

--------------------------------
INTERNAL COORDINATES (ANGSTROEM)
--------------------------------
 C      0   0   0     0.000000000000     0.00000000     0.00000000
 C      1   0   0     1.535100305117     0.00000000     0.00000000
 O      2   1   0     1.437944960515   108.37434536     0.00000000
 H      1   2   3     1.291637129901   107.90451080   180.00042382
 H      1   2   3     1.085713579315   112.83084768   296.56161615
 H      1   2   3     1.085714031836   112.83091867    63.43921757
 H      2   1   3     1.097325872093   109.49239857   121.30468957
 H      2   1   3     1.097326416945   109.49235381   238.69537934
 H      3   2   1     0.991000772896   103.83601820   180.00016695
 H      4   1   2     0.930323070874   179.85809480     0.00000000

---------------------------
INTERNAL COORDINATES (A.U.)
---------------------------
 C      0   0   0     0.000000000000     0.00000000     0.00000000
 C      1   0   0     2.900919164769     0.00000000     0.00000000
 O      2   1   0     2.717322171025   108.37434536     0.00000000
 H      1   2   3     2.440840439917   107.90451080   180.00042382
 H      1   2   3     2.051701324785   112.83084768   296.56161615
 H      1   2   3     2.051702179926   112.83091867    63.43921757
 H      2   1   3     2.073645377922   109.49239857   121.30468957
 H      2   1   3     2.073646407544   109.49235381   238.69537934
 H      3   2   1     1.872720059277   103.83601820   180.00016695
 H      4   1   2     1.758055820021   179.85809480     0.00000000

---------------------
BASIS SET INFORMATION
---------------------
There are 3 groups of distinct atoms

 Group   1 Type C   : 6s3p contracted to 2s1p pattern {33/3}
 Group   2 Type O   : 6s3p contracted to 2s1p pattern {33/3}
 Group   3 Type H   : 3s contracted to 1s pattern {3}

Atom   0C    basis set group =>   1
Atom   1C    basis set group =>   1
Atom   2O    basis set group =>   2
Atom   3H    basis set group =>   3
Atom   4H    basis set group =>   3
Atom   5H    basis set group =>   3
Atom   6H    basis set group =>   3
Atom   7H    basis set group =>   3
Atom   8H    basis set group =>   3
Atom   9H    basis set group =>   3
------------------------------------------------------------------------------
                           ORCA GTO INTEGRAL CALCULATION
------------------------------------------------------------------------------

                         BASIS SET STATISTICS AND STARTUP INFO

 # of primitive gaussian shells          ...   48
 # of primitive gaussian functions       ...   66
 # of contracted shells                  ...   16
 # of contracted basis functions         ...   22
 Highest angular momentum                ...    1
 Maximum contraction depth               ...    3
 Integral package used                   ... LIBINT
 Integral threshhold            Thresh   ...  2.500e-11
 Primitive cut-off              TCut     ...  2.500e-12


------------------------------ INTEGRAL EVALUATION ----------------------------


 * One electron integrals 
 Pre-screening matrix                    ... done
 Shell pair data                         ... done (   0.000 sec)

-------------------------------------------------------------------------------
                                 ORCA SCF
-------------------------------------------------------------------------------

------------
SCF SETTINGS
------------
Hamiltonian:
 Ab initio Hamiltonian  Method          .... Hartree-Fock(GTOs)


General Settings:
 Integral files         IntName         .... TSB_5
 Hartree-Fock type      HFTyp           .... UHF
 Total Charge           Charge          ....    0
 Multiplicity           Mult            ....    2
 Number of Electrons    NEL             ....   27
 Basis Dimension        Dim             ....   22
 Nuclear Repulsion      ENuc            ....     85.1800924057 Eh

Convergence Acceleration:
 DIIS                   CNVDIIS         .... on
   Start iteration      DIISMaxIt       ....    12
   Startup error        DIISStart       ....  0.200000
   # of expansion vecs  DIISMaxEq       ....     5
   Bias factor          DIISBfac        ....   1.050
   Max. coefficient     DIISMaxC        ....  10.000
 Newton-Raphson         CNVNR           .... off
 SOSCF                  CNVSOSCF        .... off
 Level Shifting         CNVShift        .... on
   Level shift para.    LevelShift      ....    0.2500
   Turn off err/grad.   ShiftErr        ....    0.0010
 Zerner damping         CNVZerner       .... off
 Static damping         CNVDamp         .... on
   Fraction old density DampFac         ....    0.7000
   Max. Damping (<1)    DampMax         ....    0.9800
   Min. Damping (>=0)   DampMin         ....    0.0000
   Turn off err/grad.   DampErr         ....    0.1000
 Fernandez-Rico         CNVRico         .... off

SCF Procedure:
 Maximum # iterations   MaxIter         ....   125
 SCF integral mode      SCFMode         .... Direct
   Integral package                     .... LIBINT
 Reset frequeny         DirectResetFreq ....    20
 Integral Threshold     Thresh          ....  2.500e-11 Eh
 Primitive CutOff       TCut            ....  2.500e-12 Eh

Convergence Tolerance:
 Convergence Check Mode ConvCheckMode   .... Total+1el-Energy
 Convergence forced     ConvForced      .... 0
 Energy Change          TolE            ....  1.000e-08 Eh
 1-El. energy change                    ....  1.000e-05 Eh
 DIIS Error             TolErr          ....  5.000e-07


Diagonalization of the overlap matrix:
Smallest eigenvalue                        ... 2.170e-01
Time for diagonalization                   ...    0.000 sec
Threshold for overlap eigenvalues          ... 1.000e-08
Number of eigenvalues below threshold      ... 0
Time for construction of square roots      ...    0.000 sec
Total time needed                          ...    0.000 sec

-------------------
DFT GRID GENERATION
-------------------

General Integration Accuracy     IntAcc      ...  4.340
Radial Grid Type                 RadialGrid  ... Gauss-Chebyshev
Angular Grid (max. acc.)         AngularGrid ... Lebedev-110
Angular grid pruning method      GridPruning ... 3 (G Style)
Weight generation scheme         WeightScheme... Becke
Basis function cutoff            BFCut       ...    1.0000e-11
Integration weight cutoff        WCut        ...    1.0000e-14
Grids for H and He will be reduced by one unit

# of grid points (after initial pruning)     ...  10586 (   0.0 sec)
# of grid points (after weights+screening)   ...  10106 (   0.0 sec)
nearest neighbour list constructed           ...    0.0 sec
Grid point re-assignment to atoms done       ...    0.0 sec
Grid point division into batches done        ...    0.0 sec
Reduced shell lists constructed in    0.1 sec

Total number of grid points                  ...    10106
Total number of batches                      ...      164
Average number of points per batch           ...       61
Average number of grid points per atom       ...     1011
Average number of shells per batch           ...    13.70 (85.64%)
Average number of basis functions per batch  ...    19.47 (88.51%)
Average number of large shells per batch     ...    12.47 (91.02%)
Average number of large basis fcns per batch ...    17.81 (91.44%)
Maximum spatial batch extension              ...  25.60, 20.73, 25.60 au
Average spatial batch extension              ...   4.13,  4.37,  4.16 au

Time for grid setup =    0.061 sec

------------------------------
INITIAL GUESS: MODEL POTENTIAL
------------------------------
Loading Hartree-Fock densities                     ... done
Calculating cut-offs                               ... done
Setting up the integral package                    ... done
Initializing the effective Hamiltonian             ... done
Starting the Coulomb interaction                   ... done (   0.0 sec)
Reading the grid                                   ... done
Mapping shells                                     ... done
Starting the XC term evaluation                    ... done (   0.1 sec)
Transforming the Hamiltonian                       ... done (   0.0 sec)
Diagonalizing the Hamiltonian                      ... done (   0.0 sec)
Back transforming the eigenvectors                 ... done (   0.0 sec)
Now organizing SCF variables                       ... done
                      ------------------
                      INITIAL GUESS DONE (   0.2 sec)
                      ------------------
--------------
SCF ITERATIONS
--------------
ITER       Energy         Delta-E        Max-DP      RMS-DP      [F,P]     Damp
               ***  Starting incremental Fock matrix formation  ***
  0   -152.4662457058   0.000000000000 0.03518276  0.00407651  0.1584000 0.7000
  1   -152.4946107231  -0.028365017294 0.03091802  0.00346125  0.1167235 0.7000
                               ***Turning on DIIS***
  2   -152.5146020163  -0.019991293150 0.07634398  0.00824039  0.0809111 0.0000
  3   -152.5087411661   0.005860850232 0.02200029  0.00174503  0.0086477 0.0000
  4   -152.5571749364  -0.048433770345 0.01840209  0.00105711  0.0022979 0.0000
  5   -152.5611629204  -0.003987983952 0.01254546  0.00073149  0.0010600 0.0000
  6   -152.5634819137  -0.002318993372 0.00663817  0.00044263  0.0005255 0.0000
  7   -152.5636960499  -0.000214136147 0.00155503  0.00017738  0.0001557 0.0000
  8   -152.5637198430  -0.000023793102 0.00061205  0.00007141  0.0000292 0.0000
  9   -152.5637412286  -0.000021385589 0.00026032  0.00003361  0.0000237 0.0000
 10   -152.5637535243  -0.000012295717 0.00026929  0.00003692  0.0000236 0.0000
 11   -152.5637635772  -0.000010052884 0.00018519  0.00002690  0.0000146 0.0000
 12   -152.5637471296   0.000016447558 0.00002805  0.00000210  0.0000021 0.0000
                            ***DIIS convergence achieved***

               *****************************************************
               *                     SUCCESS                       *
               *           SCF CONVERGED AFTER  13 CYCLES          *
               *****************************************************


----------------
TOTAL SCF ENERGY
----------------

Total Energy       :         -152.56374336 Eh           -4151.47051 eV

Components:
Nuclear Repulsion  :           85.18009241 Eh            2317.86815 eV
Electronic Energy  :         -237.74383577 Eh           -6469.33867 eV
One Electron Energy:         -377.31760097 Eh          -10267.33390 eV
Two Electron Energy:          139.57376521 Eh            3797.99524 eV

Virial components:
Potential Energy   :         -304.16725998 Eh           -8276.81193 eV
Kinetic Energy     :          151.60351662 Eh            4125.34142 eV
Virial Ratio       :            2.00633380


---------------
SCF CONVERGENCE
---------------

  Last Energy change         ...    3.7683e-06  Tolerance :   1.0000e-08
  Last MAX-Density change    ...    1.7033e-05  Tolerance :   1.0000e-07
  Last RMS-Density change    ...    2.0575e-06  Tolerance :   5.0000e-09
  Last DIIS Error            ...    5.8119e-07  Tolerance :   5.0000e-07

             **** THE GBW FILE WAS UPDATED (TSB_5.gbw) ****
             **** DENSITY FILE WAS UPDATED (TSB_5.scfp.tmp) ****
             **** ENERGY FILE WAS UPDATED (TSB_5.en.tmp) ****
----------------------
UHF SPIN CONTAMINATION
----------------------

Expectation value of <S**2>     :     0.787219
Ideal value S*(S+1) for S=0.5   :     0.750000
Deviation                       :     0.037219

----------------
ORBITAL ENERGIES
----------------
                 SPIN UP ORBITALS
  NO   OCC          E(Eh)            E(eV) 
   0   1.0000     -20.259356      -551.2851 
   1   1.0000     -11.091665      -301.8195 
   2   1.0000     -11.040695      -300.4326 
   3   1.0000      -1.280869       -34.8542 
   4   1.0000      -0.976399       -26.5692 
   5   1.0000      -0.801149       -21.8004 
   6   1.0000      -0.643530       -17.5113 
   7   1.0000      -0.607862       -16.5408 
   8   1.0000      -0.572183       -15.5699 
   9   1.0000      -0.500340       -13.6149 
  10   1.0000      -0.496128       -13.5003 
  11   1.0000      -0.415091       -11.2952 
  12   1.0000      -0.357416        -9.7258 
  13   1.0000      -0.312161        -8.4943 
  14   0.0000       0.566486        15.4149 
  15   0.0000       0.636485        17.3196 
  16   0.0000       0.639494        17.4015 
  17   0.0000       0.701426        19.0868 
  18   0.0000       0.708408        19.2768 
  19   0.0000       0.740531        20.1509 
  20   0.0000       0.782282        21.2870 
  21   0.0000       0.816341        22.2138 

                 SPIN DOWN ORBITALS
  NO   OCC          E(Eh)            E(eV) 
   0   1.0000     -20.258467      -551.2609 
   1   1.0000     -11.093581      -301.8717 
   2   1.0000     -11.019782      -299.8635 
   3   1.0000      -1.277108       -34.7519 
   4   1.0000      -0.940276       -25.5862 
   5   1.0000      -0.778701       -21.1895 
   6   1.0000      -0.605614       -16.4796 
   7   1.0000      -0.602860       -16.4047 
   8   1.0000      -0.509295       -13.8586 
   9   1.0000      -0.488011       -13.2794 
  10   1.0000      -0.475582       -12.9413 
  11   1.0000      -0.409878       -11.1534 
  12   1.0000      -0.356071        -9.6892 
  13   0.0000       0.237353         6.4587 
  14   0.0000       0.574355        15.6290 
  15   0.0000       0.645290        17.5592 
  16   0.0000       0.648419        17.6444 
  17   0.0000       0.716675        19.5017 
  18   0.0000       0.721365        19.6293 
  19   0.0000       0.756503        20.5855 
  20   0.0000       0.799196        21.7472 
  21   0.0000       0.909356        24.7448 

                    ********************************
                    * MULLIKEN POPULATION ANALYSIS *
                    ********************************

--------------------------------------------
MULLIKEN ATOMIC CHARGES AND SPIN POPULATIONS
--------------------------------------------
   0 C :   -0.133946    0.727824
   1 C :    0.003435   -0.070797
   2 O :   -0.286119    0.024522
   3 H :    0.036140   -0.252327
   4 H :    0.064429   -0.044178
   5 H :    0.064429   -0.044178
   6 H :    0.049700    0.006077
   7 H :    0.049700    0.006076
   8 H :    0.172277    0.003018
   9 H :   -0.020046    0.643963
Sum of atomic charges         :   -0.0000000
Sum of atomic spin populations:    1.0000000

-----------------------------------------------------
MULLIKEN REDUCED ORBITAL CHARGES AND SPIN POPULATIONS
-----------------------------------------------------
CHARGE
  0 C s       :     3.206752  s :     3.206752
      pz      :     1.014447  p :     2.927194
      px      :     0.943575
      py      :     0.969172
  1 C s       :     3.169071  s :     3.169071
      pz      :     1.014963  p :     2.827494
      px      :     0.841567
      py      :     0.970963
  2 O s       :     3.837146  s :     3.837146
      pz      :     1.974332  p :     4.448973
      px      :     1.080537
      py      :     1.394105
  3 H s       :     0.963860  s :     0.963860
  4 H s       :     0.935571  s :     0.935571
  5 H s       :     0.935571  s :     0.935571
  6 H s       :     0.950300  s :     0.950300
  7 H s       :     0.950300  s :     0.950300
  8 H s       :     0.827723  s :     0.827723
  9 H s       :     1.020046  s :     1.020046

SPIN
  0 C s       :     0.121226  s :     0.121226
      pz      :     0.043320  p :     0.606599
      px      :     0.450891
      py      :     0.112388
  1 C s       :    -0.014927  s :    -0.014927
      pz      :    -0.004897  p :    -0.055870
      px      :    -0.029235
      py      :    -0.021738
  2 O s       :     0.002466  s :     0.002466
      pz      :    -0.000005  p :     0.022056
      px      :     0.019300
      py      :     0.002762
  3 H s       :    -0.252327  s :    -0.252327
  4 H s       :    -0.044178  s :    -0.044178
  5 H s       :    -0.044178  s :    -0.044178
  6 H s       :     0.006077  s :     0.006077
  7 H s       :     0.006076  s :     0.006076
  8 H s       :     0.003018  s :     0.003018
  9 H s       :     0.643963  s :     0.643963


                     *******************************
                     * LOEWDIN POPULATION ANALYSIS *
                     *******************************

-------------------------------------------
LOEWDIN ATOMIC CHARGES AND SPIN POPULATIONS
-------------------------------------------
   0 C :   -0.069913    0.665325
   1 C :    0.049488   -0.056174
   2 O :   -0.206078    0.023390
   3 H :    0.045285   -0.178185
   4 H :    0.032327   -0.033220
   5 H :    0.032327   -0.033220
   6 H :    0.015341    0.004927
   7 H :    0.015341    0.004927
   8 H :    0.119834    0.002529
   9 H :   -0.033952    0.599699

----------------------------------------------------
LOEWDIN REDUCED ORBITAL CHARGES AND SPIN POPULATIONS
----------------------------------------------------
CHARGE
  0 C s       :     3.054986  s :     3.054986
      pz      :     1.038966  p :     3.014926
      px      :     0.972550
      py      :     1.003410
  1 C s       :     3.028131  s :     3.028131
      pz      :     1.036806  p :     2.922381
      px      :     0.884797
      py      :     1.000778
  2 O s       :     3.713831  s :     3.713831
      pz      :     1.974923  p :     4.492247
      px      :     1.108864
      py      :     1.408461
  3 H s       :     0.954715  s :     0.954715
  4 H s       :     0.967673  s :     0.967673
  5 H s       :     0.967673  s :     0.967673
  6 H s       :     0.984659  s :     0.984659
  7 H s       :     0.984659  s :     0.984659
  8 H s       :     0.880166  s :     0.880166
  9 H s       :     1.033952  s :     1.033952

SPIN
  0 C s       :     0.094815  s :     0.094815
      pz      :     0.034501  p :     0.570511
      px      :     0.433078
      py      :     0.102932
  1 C s       :    -0.009880  s :    -0.009880
      pz      :    -0.003849  p :    -0.046293
      px      :    -0.024296
      py      :    -0.018148
  2 O s       :     0.002480  s :     0.002480
      pz      :    -0.000025  p :     0.020910
      px      :     0.018438
      py      :     0.002498
  3 H s       :    -0.178185  s :    -0.178185
  4 H s       :    -0.033220  s :    -0.033220
  5 H s       :    -0.033220  s :    -0.033220
  6 H s       :     0.004927  s :     0.004927
  7 H s       :     0.004927  s :     0.004927
  8 H s       :     0.002529  s :     0.002529
  9 H s       :     0.599699  s :     0.599699


                      *****************************
                      * MAYER POPULATION ANALYSIS *
                      *****************************

  NA   - Mulliken gross atomic population
  ZA   - Total nuclear charge
  QA   - Mulliken gross atomic charge
  VA   - Mayer's total valence
  BVA  - Mayer's bonded valence
  FA   - Mayer's free valence

  ATOM       NA         ZA         QA         VA         BVA        FA
  0 C      6.1339     6.0000    -0.1339     3.9506     3.6008     0.3498
  1 C      5.9966     6.0000     0.0034     3.9342     3.9320     0.0022
  2 O      8.2861     8.0000    -0.2861     1.9887     1.9881     0.0006
  3 H      0.9639     1.0000     0.0361     0.9987     0.9350     0.0637
  4 H      0.9356     1.0000     0.0644     0.9958     0.9939     0.0020
  5 H      0.9356     1.0000     0.0644     0.9958     0.9939     0.0020
  6 H      0.9503     1.0000     0.0497     0.9975     0.9975     0.0000
  7 H      0.9503     1.0000     0.0497     0.9975     0.9975     0.0000
  8 H      0.8277     1.0000     0.1723     0.9703     0.9703     0.0000
  9 H      1.0200     1.0000    -0.0200     0.9996     0.5849     0.4147

  Mayer bond orders larger than 0.1
B(  0-C ,  1-C ) :   0.9970 B(  0-C ,  3-H ) :   0.4896 B(  0-C ,  4-H ) :   0.9775 
B(  0-C ,  5-H ) :   0.9775 B(  0-C ,  9-H ) :   0.1341 B(  1-C ,  2-O ) :   0.9826 
B(  1-C ,  6-H ) :   0.9651 B(  1-C ,  7-H ) :   0.9651 B(  2-O ,  8-H ) :   0.9492 
B(  3-H ,  9-H ) :   0.4385 

-------
TIMINGS
-------

Total SCF time: 0 days 0 hours 0 min 1 sec 

Total time                  ....       1.643 sec
Sum of individual times     ....       1.640 sec  ( 99.8%)

Fock matrix formation       ....       1.443 sec  ( 87.8%)
Diagonalization             ....       0.003 sec  (  0.2%)
Density matrix formation    ....       0.000 sec  (  0.0%)
Population analysis         ....       0.001 sec  (  0.0%)
Initial guess               ....       0.132 sec  (  8.0%)
Orbital Transformation      ....       0.000 sec  (  0.0%)
Orbital Orthonormalization  ....       0.000 sec  (  0.0%)
DIIS solution               ....       0.001 sec  (  0.1%)

-------------------------   --------------------
FINAL SINGLE POINT ENERGY      -152.563743361308
-------------------------   --------------------

------------------------------------------------------------------------------
                         ORCA SCF GRADIENT CALCULATION
------------------------------------------------------------------------------

Gradient of the Hartree-Fock SCF energy:
Hartree-Fock type                ... UHF
Number of operators              ...    2
Number of atoms                  ...   10
Basis set dimensions             ...   22
Integral neglect threshold       ... 2.5e-11
Integral primitive cutoff        ... 2.5e-12

Nuclear repulsion gradient       ... done
One Electron Gradient            ... done
Pre-screening matrix             ... done
Starting the two electron gradient:
Two electron gradient done

------------------
CARTESIAN GRADIENT
------------------

   1   C   :   -0.000268831    0.000149636    0.000000228
   2   C   :    0.000046058   -0.000133305    0.000000635
   3   O   :   -0.000128337    0.000145439   -0.000000027
   4   H   :    0.000212185    0.000112548   -0.000000008
   5   H   :   -0.000028388   -0.000051010   -0.000036230
   6   H   :   -0.000028307   -0.000051286    0.000035876
   7   H   :    0.000009821    0.000010433   -0.000007959
   8   H   :    0.000009865    0.000010607    0.000007501
   9   H   :    0.000171560   -0.000177241   -0.000000019
  10   H   :    0.000004374   -0.000015820    0.000000004

Difference to translation invariance:
           :   -0.0000000000   -0.0000000000   -0.0000000000

Norm of the cartesian gradient     ...    0.0005300526
RMS gradient                       ...    0.0000967739
MAX gradient                       ...    0.0002688314

-------
TIMINGS
-------

Total SCF gradient time            ...        0.129 sec

One electron gradient       ....       0.004 sec  (  3.3%)
Prescreening matrices       ....       0.002 sec  (  1.6%)
Two electron gradient       ....       0.061 sec  ( 47.1%)
------------------------------------------------------------------------------
                         ORCA GEOMETRY RELAXATION STEP
------------------------------------------------------------------------------

Reading the OPT-File                    .... done
Getting information on internals        .... done
Copying old internal coords+grads       .... done
Making the new internal coordinates     .... (new redundants).... done
Validating the new internal coordinates .... (new redundants).... done
Calculating the B-matrix                .... done
Calculating the G,G- and P matrices     .... done
Transforming gradient to internals      .... done
Projecting the internal gradient        .... done
Number of atoms                         ....  10
Number of internal coordinates          ....  36
Current Energy                          ....  -152.563743361 Eh
Current gradient norm                   ....     0.000530053 Eh/bohr
Maximum allowed component of the step   ....  0.300
Current trust radius                    ....  0.300
Evaluating the initial hessian          ....  (Almloef) done
Projecting the Hessian                  .... done
Forming the augmented Hessian           .... done
Diagonalizing the augmented Hessian     .... done
Last element of RFO vector              ....  0.999998414
Lowest eigenvalues of augmented Hessian:
 -0.000000637  0.010758248  0.017354127  0.092160520  0.101932199
Length of the computed step             ....  0.001780771
The final length of the internal step   ....  0.001780771
Converting the step to cartesian space:
 Initial RMS(Int)=    0.0002967952
Transforming coordinates:
 Iter   0:  RMS(Cart)=    0.0004013425 RMS(Int)=    0.0002967899
 Iter   1:  RMS(Cart)=    0.0000000453 RMS(Int)=    0.0000000306
done
Storing new coordinates                 .... done

                                .--------------------.
          ----------------------|Geometry convergence|-------------------------
          Item                value                   Tolerance       Converged
          ---------------------------------------------------------------------
          RMS gradient        0.0000676301            0.0001000000      YES
          MAX gradient        0.0002433728            0.0003000000      YES
          RMS step            0.0002967952            0.0020000000      YES
          MAX step            0.0013798888            0.0040000000      YES
          ........................................................
          Max(Bonds)      0.0007      Max(Angles)    0.02
          Max(Dihed)        0.02      Max(Improp)    0.00
          ---------------------------------------------------------------------

                    ***********************HURRAY********************
                    ***        THE OPTIMIZATION HAS CONVERGED     ***
                    *************************************************


    ---------------------------------------------------------------------------
                         Redundant Internal Coordinates

                          --- Optimized Parameters ---  
                            (Angstroem and degrees)

        Definition                    OldVal   dE/dq     Step     FinalVal
    ----------------------------------------------------------------------------
     1. B(C   1,C   0)                1.5351 -0.000181  0.0003    1.5354   
     2. B(O   2,C   1)                1.4379 -0.000029  0.0000    1.4380   
     3. B(H   3,C   0)                1.2916  0.000237 -0.0007    1.2909   
     4. B(H   4,C   0)                1.0857  0.000001 -0.0000    1.0857   
     5. B(H   5,C   0)                1.0857  0.000001 -0.0000    1.0857   
     6. B(H   6,C   1)                1.0973  0.000001 -0.0000    1.0973   
     7. B(H   7,C   1)                1.0973  0.000002 -0.0000    1.0973   
     8. B(H   8,O   2)                0.9910 -0.000243  0.0003    0.9913   
     9. B(H   9,H   3)                0.9303 -0.000002  0.0000    0.9303   
    10. A(C   1,C   0,H   5)          112.83  0.000017    0.00    112.83   
    11. A(H   3,C   0,H   4)          105.84  0.000008   -0.01    105.83   
    12. A(H   3,C   0,H   5)          105.84  0.000008   -0.01    105.83   
    13. A(C   1,C   0,H   4)          112.83  0.000016    0.00    112.83   
    14. A(H   4,C   0,H   5)          111.05 -0.000056    0.02    111.07   
    15. A(C   1,C   0,H   3)          107.90  0.000009   -0.01    107.90   
    16. A(C   0,C   1,O   2)          108.37 -0.000031    0.00    108.38   
    17. A(H   6,C   1,H   7)          107.31 -0.000012    0.00    107.31   
    18. A(O   2,C   1,H   7)          111.08  0.000015   -0.00    111.08   
    19. A(C   0,C   1,H   7)          109.49  0.000007   -0.00    109.49   
    20. A(O   2,C   1,H   6)          111.08  0.000015   -0.00    111.08   
    21. A(C   0,C   1,H   6)          109.49  0.000007   -0.00    109.49   
    22. A(C   1,O   2,H   8)          103.84 -0.000075    0.01    103.85   
    23. L(C   0,H   3,H   9,C   1, 2) 180.00 -0.000000    0.00    180.00   
    24. L(C   0,H   3,H   9,C   1, 1) 179.86  0.000029   -0.01    179.85   
    25. D(H   6,C   1,C   0,H   5)   -175.26 -0.000021    0.01   -175.24   
    26. D(O   2,C   1,C   0,H   4)    -63.44  0.000025   -0.02    -63.45   
    27. D(H   6,C   1,C   0,H   3)    -58.69  0.000004   -0.00    -58.70   
    28. D(O   2,C   1,C   0,H   3)   -180.00 -0.000000   -0.00   -180.00   
    29. D(O   2,C   1,C   0,H   5)     63.44 -0.000025    0.02     63.45   
    30. D(H   7,C   1,C   0,H   3)     58.70 -0.000003    0.00     58.70   
    31. D(H   7,C   1,C   0,H   4)    175.26  0.000021   -0.01    175.24   
    32. D(H   7,C   1,C   0,H   5)    -57.87 -0.000028    0.02    -57.85   
    33. D(H   6,C   1,C   0,H   4)     57.87  0.000028   -0.02     57.85   
    34. D(H   8,O   2,C   1,H   7)    -59.68 -0.000002   -0.00    -59.68   
    35. D(H   8,O   2,C   1,H   6)     59.68  0.000002    0.00     59.68   
    36. D(H   8,O   2,C   1,C   0)   -180.00  0.000000   -0.00   -180.00   
    ----------------------------------------------------------------------------
                 *******************************************************
                 *** FINAL ENERGY EVALUATION AT THE STATIONARY POINT ***
                 ***               (AFTER    1 CYCLES)               ***
                 *******************************************************
---------------------------------
CARTESIAN COORDINATES (ANGSTROEM)
---------------------------------
  C      1.072415   -0.649518   -0.000002
  C      0.101389    0.539785   -0.000000
  O     -1.242407    0.027934    0.000008
  H      2.274861   -0.179876   -0.000001
  H      0.992444   -1.258673    0.895155
  H      0.992444   -1.258672   -0.895160
  H      0.286145    1.163314    0.883853
  H      0.286136    1.163309   -0.883859
  H     -1.806725    0.842904    0.000007
  H      3.140549    0.160857   -0.000001

----------------------------
CARTESIAN COORDINATES (A.U.)
----------------------------
  NO LB      ZA    FRAG     MASS         X           Y           Z
   0 C     6.0000    0    12.011    2.026570   -1.227412   -0.000004
   1 C     6.0000    0    12.011    0.191598    1.020046   -0.000001
   2 O     8.0000    0    15.999   -2.347809    0.052787    0.000015
   3 H     1.0000    0     1.008    4.298864   -0.339917   -0.000002
   4 H     1.0000    0     1.008    1.875447   -2.378548    1.691598
   5 H     1.0000    0     1.008    1.875448   -2.378545   -1.691607
   6 H     1.0000    0     1.008    0.540736    2.198345    1.670241
   7 H     1.0000    0     1.008    0.540719    2.198335   -1.670252
   8 H     1.0000    0     1.008   -3.414216    1.592858    0.000013
   9 H     1.0000    0     1.008    5.934777    0.303976   -0.000001

--------------------------------
INTERNAL COORDINATES (ANGSTROEM)
--------------------------------
 C      0   0   0     0.000000000000     0.00000000     0.00000000
 C      1   0   0     1.535360830922     0.00000000     0.00000000
 O      2   1   0     1.437977749976   108.37863270     0.00000000
 H      1   2   3     1.290906924185   107.89622491   180.00038003
 H      1   2   3     1.085712339866   112.83139879   296.54604164
 H      1   2   3     1.085712155461   112.83143691    63.45470969
 H      2   1   3     1.097324101987   109.49169012   121.30287405
 H      2   1   3     1.097323929089   109.49168428   238.69713293
 H      3   2   1     0.991278338472   103.84847299   180.00010520
 H      4   1   2     0.930330422442   179.84971130     0.00000000

---------------------------
INTERNAL COORDINATES (A.U.)
---------------------------
 C      0   0   0     0.000000000000     0.00000000     0.00000000
 C      1   0   0     2.901411487192     0.00000000     0.00000000
 O      2   1   0     2.717384134127   108.37863270     0.00000000
 H      1   2   3     2.439460551092   107.89622491   180.00038003
 H      1   2   3     2.051698982565   112.83139879   296.54604164
 H      1   2   3     2.051698634090   112.83143691    63.45470969
 H      2   1   3     2.073642032906   109.49169012   121.30287405
 H      2   1   3     2.073641706176   109.49168428   238.69713293
 H      3   2   1     1.873244582201   103.84847299   180.00010520
 H      4   1   2     1.758069712470   179.84971130     0.00000000

---------------------
BASIS SET INFORMATION
---------------------
There are 3 groups of distinct atoms

 Group   1 Type C   : 6s3p contracted to 2s1p pattern {33/3}
 Group   2 Type O   : 6s3p contracted to 2s1p pattern {33/3}
 Group   3 Type H   : 3s contracted to 1s pattern {3}

Atom   0C    basis set group =>   1
Atom   1C    basis set group =>   1
Atom   2O    basis set group =>   2
Atom   3H    basis set group =>   3
Atom   4H    basis set group =>   3
Atom   5H    basis set group =>   3
Atom   6H    basis set group =>   3
Atom   7H    basis set group =>   3
Atom   8H    basis set group =>   3
Atom   9H    basis set group =>   3
------------------------------------------------------------------------------
                           ORCA GTO INTEGRAL CALCULATION
------------------------------------------------------------------------------

                         BASIS SET STATISTICS AND STARTUP INFO

 # of primitive gaussian shells          ...   48
 # of primitive gaussian functions       ...   66
 # of contracted shells                  ...   16
 # of contracted basis functions         ...   22
 Highest angular momentum                ...    1
 Maximum contraction depth               ...    3
 Integral package used                   ... LIBINT
 Integral threshhold            Thresh   ...  2.500e-11
 Primitive cut-off              TCut     ...  2.500e-12


------------------------------ INTEGRAL EVALUATION ----------------------------


 * One electron integrals 
 Pre-screening matrix                    ... done
 Shell pair data                         ... done (   0.000 sec)

-------------------------------------------------------------------------------
                                 ORCA SCF
-------------------------------------------------------------------------------

------------
SCF SETTINGS
------------
Hamiltonian:
 Ab initio Hamiltonian  Method          .... Hartree-Fock(GTOs)


General Settings:
 Integral files         IntName         .... TSB_5
 Hartree-Fock type      HFTyp           .... UHF
 Total Charge           Charge          ....    0
 Multiplicity           Mult            ....    2
 Number of Electrons    NEL             ....   27
 Basis Dimension        Dim             ....   22
 Nuclear Repulsion      ENuc            ....     85.1763492077 Eh

Convergence Acceleration:
 DIIS                   CNVDIIS         .... on
   Start iteration      DIISMaxIt       ....    12
   Startup error        DIISStart       ....  0.200000
   # of expansion vecs  DIISMaxEq       ....     5
   Bias factor          DIISBfac        ....   1.050
   Max. coefficient     DIISMaxC        ....  10.000
 Newton-Raphson         CNVNR           .... off
 SOSCF                  CNVSOSCF        .... off
 Level Shifting         CNVShift        .... on
   Level shift para.    LevelShift      ....    0.2500
   Turn off err/grad.   ShiftErr        ....    0.0010
 Zerner damping         CNVZerner       .... off
 Static damping         CNVDamp         .... on
   Fraction old density DampFac         ....    0.7000
   Max. Damping (<1)    DampMax         ....    0.9800
   Min. Damping (>=0)   DampMin         ....    0.0000
   Turn off err/grad.   DampErr         ....    0.1000
 Fernandez-Rico         CNVRico         .... off

SCF Procedure:
 Maximum # iterations   MaxIter         ....   125
 SCF integral mode      SCFMode         .... Direct
   Integral package                     .... LIBINT
 Reset frequeny         DirectResetFreq ....    20
 Integral Threshold     Thresh          ....  2.500e-11 Eh
 Primitive CutOff       TCut            ....  2.500e-12 Eh

Convergence Tolerance:
 Convergence Check Mode ConvCheckMode   .... Total+1el-Energy
 Convergence forced     ConvForced      .... 0
 Energy Change          TolE            ....  1.000e-08 Eh
 1-El. energy change                    ....  1.000e-05 Eh
 DIIS Error             TolErr          ....  5.000e-07


Diagonalization of the overlap matrix:
Smallest eigenvalue                        ... 2.170e-01
Time for diagonalization                   ...    0.000 sec
Threshold for overlap eigenvalues          ... 1.000e-08
Number of eigenvalues below threshold      ... 0
Time for construction of square roots      ...    0.000 sec
Total time needed                          ...    0.000 sec

---------------------
INITIAL GUESS: MOREAD
---------------------
Guess MOs are being read from file: TSB_5.gbw
Input Geometry matches current geometry (good)
Input basis set matches current basis set (good)
MOs were renormalized
MOs were reorthogonalized (Cholesky)
                      ------------------
                      INITIAL GUESS DONE (   0.0 sec)
                      ------------------
--------------
SCF ITERATIONS
--------------
ITER       Energy         Delta-E        Max-DP      RMS-DP      [F,P]     Damp
               ***  Starting incremental Fock matrix formation  ***
  0   -152.5637438646   0.000000000000 0.00002954  0.00000261  0.0001243 0.7000
  1   -152.5637438808  -0.000000016220 0.00003105  0.00000268  0.0001146 0.7000
                               ***Turning on DIIS***
  2   -152.5637438965  -0.000000015665 0.00010135  0.00000853  0.0001039 0.0000
  3   -152.5637414586   0.000002437811 0.00009963  0.00000768  0.0000677 0.0000
  4   -152.5637166510   0.000024807601 0.00007336  0.00000560  0.0000342 0.0000
  5   -152.5637349040  -0.000018252973 0.00001707  0.00000131  0.0000068 0.0000
  6   -152.5637430404  -0.000008136353 0.00000312  0.00000037  0.0000010 0.0000
                            ***DIIS convergence achieved***

               *****************************************************
               *                     SUCCESS                       *
               *           SCF CONVERGED AFTER   7 CYCLES          *
               *****************************************************


----------------
TOTAL SCF ENERGY
----------------

Total Energy       :         -152.56374374 Eh           -4151.47052 eV

Components:
Nuclear Repulsion  :           85.17634921 Eh            2317.76629 eV
Electronic Energy  :         -237.74009295 Eh           -6469.23682 eV
One Electron Energy:         -377.31071735 Eh          -10267.14659 eV
Two Electron Energy:          139.57062441 Eh            3797.90977 eV

Virial components:
Potential Energy   :         -304.16690421 Eh           -8276.80225 eV
Kinetic Energy     :          151.60316047 Eh            4125.33172 eV
Virial Ratio       :            2.00633617


---------------
SCF CONVERGENCE
---------------

  Last Energy change         ...   -6.9781e-07  Tolerance :   1.0000e-08
  Last MAX-Density change    ...    1.5846e-06  Tolerance :   1.0000e-07
  Last RMS-Density change    ...    1.7287e-07  Tolerance :   5.0000e-09
  Last DIIS Error            ...    3.6785e-07  Tolerance :   5.0000e-07

             **** THE GBW FILE WAS UPDATED (TSB_5.gbw) ****
             **** DENSITY FILE WAS UPDATED (TSB_5.scfp.tmp) ****
             **** ENERGY FILE WAS UPDATED (TSB_5.en.tmp) ****
----------------------
UHF SPIN CONTAMINATION
----------------------

Expectation value of <S**2>     :     0.787145
Ideal value S*(S+1) for S=0.5   :     0.750000
Deviation                       :     0.037145

----------------
ORBITAL ENERGIES
----------------
                 SPIN UP ORBITALS
  NO   OCC          E(Eh)            E(eV) 
   0   1.0000     -20.259337      -551.2846 
   1   1.0000     -11.091654      -301.8192 
   2   1.0000     -11.040679      -300.4321 
   3   1.0000      -1.280762       -34.8513 
   4   1.0000      -0.976349       -26.5678 
   5   1.0000      -0.801167       -21.8009 
   6   1.0000      -0.643544       -17.5117 
   7   1.0000      -0.607831       -16.5399 
   8   1.0000      -0.572173       -15.5696 
   9   1.0000      -0.500272       -13.6131 
  10   1.0000      -0.496165       -13.5013 
  11   1.0000      -0.415020       -11.2933 
  12   1.0000      -0.357390        -9.7251 
  13   1.0000      -0.312150        -8.4940 
  14   0.0000       0.566350        15.4112 
  15   0.0000       0.636308        17.3148 
  16   0.0000       0.639571        17.4036 
  17   0.0000       0.701270        19.0825 
  18   0.0000       0.708395        19.2764 
  19   0.0000       0.740438        20.1483 
  20   0.0000       0.782319        21.2880 
  21   0.0000       0.816870        22.2282 

                 SPIN DOWN ORBITALS
  NO   OCC          E(Eh)            E(eV) 
   0   1.0000     -20.258449      -551.2604 
   1   1.0000     -11.093569      -301.8714 
   2   1.0000     -11.019787      -299.8636 
   3   1.0000      -1.277006       -34.7491 
   4   1.0000      -0.940247       -25.5854 
   5   1.0000      -0.778749       -21.1908 
   6   1.0000      -0.605564       -16.4782 
   7   1.0000      -0.602836       -16.4040 
   8   1.0000      -0.509295       -13.8586 
   9   1.0000      -0.488061       -13.2808 
  10   1.0000      -0.475555       -12.9405 
  11   1.0000      -0.409812       -11.1515 
  12   1.0000      -0.356046        -9.6885 
  13   0.0000       0.237434         6.4609 
  14   0.0000       0.574202        15.6248 
  15   0.0000       0.645354        17.5610 
  16   0.0000       0.648267        17.6403 
  17   0.0000       0.716618        19.5002 
  18   0.0000       0.721171        19.6241 
  19   0.0000       0.756386        20.5823 
  20   0.0000       0.799215        21.7477 
  21   0.0000       0.909917        24.7601 

                    ********************************
                    * MULLIKEN POPULATION ANALYSIS *
                    ********************************

--------------------------------------------
MULLIKEN ATOMIC CHARGES AND SPIN POPULATIONS
--------------------------------------------
   0 C :   -0.134069    0.726988
   1 C :    0.003456   -0.070748
   2 O :   -0.286021    0.024496
   3 H :    0.036211   -0.252144
   4 H :    0.064436   -0.044131
   5 H :    0.064435   -0.044131
   6 H :    0.049692    0.006069
   7 H :    0.049692    0.006069
   8 H :    0.172154    0.003002
   9 H :   -0.019987    0.644530
Sum of atomic charges         :   -0.0000000
Sum of atomic spin populations:    1.0000000

-----------------------------------------------------
MULLIKEN REDUCED ORBITAL CHARGES AND SPIN POPULATIONS
-----------------------------------------------------
CHARGE
  0 C s       :     3.206721  s :     3.206721
      pz      :     1.014436  p :     2.927349
      px      :     0.943717
      py      :     0.969195
  1 C s       :     3.169120  s :     3.169120
      pz      :     1.014942  p :     2.827424
      px      :     0.841538
      py      :     0.970944
  2 O s       :     3.837169  s :     3.837169
      pz      :     1.974337  p :     4.448851
      px      :     1.080491
      py      :     1.394024
  3 H s       :     0.963789  s :     0.963789
  4 H s       :     0.935564  s :     0.935564
  5 H s       :     0.935565  s :     0.935565
  6 H s       :     0.950308  s :     0.950308
  7 H s       :     0.950308  s :     0.950308
  8 H s       :     0.827846  s :     0.827846
  9 H s       :     1.019987  s :     1.019987

SPIN
  0 C s       :     0.121083  s :     0.121083
      pz      :     0.043264  p :     0.605905
      px      :     0.450306
      py      :     0.112334
  1 C s       :    -0.014918  s :    -0.014918
      pz      :    -0.004893  p :    -0.055830
      px      :    -0.029208
      py      :    -0.021730
  2 O s       :     0.002461  s :     0.002461
      pz      :    -0.000005  p :     0.022035
      px      :     0.019269
      py      :     0.002771
  3 H s       :    -0.252144  s :    -0.252144
  4 H s       :    -0.044131  s :    -0.044131
  5 H s       :    -0.044131  s :    -0.044131
  6 H s       :     0.006069  s :     0.006069
  7 H s       :     0.006069  s :     0.006069
  8 H s       :     0.003002  s :     0.003002
  9 H s       :     0.644530  s :     0.644530


                     *******************************
                     * LOEWDIN POPULATION ANALYSIS *
                     *******************************

-------------------------------------------
LOEWDIN ATOMIC CHARGES AND SPIN POPULATIONS
-------------------------------------------
   0 C :   -0.070025    0.664520
   1 C :    0.049500   -0.056142
   2 O :   -0.206027    0.023361
   3 H :    0.045365   -0.177992
   4 H :    0.032335   -0.033186
   5 H :    0.032335   -0.033186
   6 H :    0.015335    0.004921
   7 H :    0.015335    0.004921
   8 H :    0.119763    0.002516
   9 H :   -0.033914    0.600266

----------------------------------------------------
LOEWDIN REDUCED ORBITAL CHARGES AND SPIN POPULATIONS
----------------------------------------------------
CHARGE
  0 C s       :     3.054929  s :     3.054929
      pz      :     1.038951  p :     3.015097
      px      :     0.972716
      py      :     1.003430
  1 C s       :     3.028193  s :     3.028193
      pz      :     1.036791  p :     2.922307
      px      :     0.884765
      py      :     1.000750
  2 O s       :     3.713919  s :     3.713919
      pz      :     1.974927  p :     4.492108
      px      :     1.108810
      py      :     1.408371
  3 H s       :     0.954635  s :     0.954635
  4 H s       :     0.967665  s :     0.967665
  5 H s       :     0.967665  s :     0.967665
  6 H s       :     0.984665  s :     0.984665
  7 H s       :     0.984665  s :     0.984665
  8 H s       :     0.880237  s :     0.880237
  9 H s       :     1.033914  s :     1.033914

SPIN
  0 C s       :     0.094698  s :     0.094698
      pz      :     0.034454  p :     0.569822
      px      :     0.432483
      py      :     0.102885
  1 C s       :    -0.009876  s :    -0.009876
      pz      :    -0.003846  p :    -0.046266
      px      :    -0.024277
      py      :    -0.018144
  2 O s       :     0.002473  s :     0.002473
      pz      :    -0.000025  p :     0.020888
      px      :     0.018407
      py      :     0.002507
  3 H s       :    -0.177992  s :    -0.177992
  4 H s       :    -0.033186  s :    -0.033186
  5 H s       :    -0.033186  s :    -0.033186
  6 H s       :     0.004921  s :     0.004921
  7 H s       :     0.004921  s :     0.004921
  8 H s       :     0.002516  s :     0.002516
  9 H s       :     0.600266  s :     0.600266


                      *****************************
                      * MAYER POPULATION ANALYSIS *
                      *****************************

  NA   - Mulliken gross atomic population
  ZA   - Total nuclear charge
  QA   - Mulliken gross atomic charge
  VA   - Mayer's total valence
  BVA  - Mayer's bonded valence
  FA   - Mayer's free valence

  ATOM       NA         ZA         QA         VA         BVA        FA
  0 C      6.1341     6.0000    -0.1341     3.9506     3.6017     0.3489
  1 C      5.9965     6.0000     0.0035     3.9342     3.9319     0.0022
  2 O      8.2860     8.0000    -0.2860     1.9887     1.9881     0.0006
  3 H      0.9638     1.0000     0.0362     0.9987     0.9351     0.0636
  4 H      0.9356     1.0000     0.0644     0.9958     0.9939     0.0019
  5 H      0.9356     1.0000     0.0644     0.9958     0.9939     0.0019
  6 H      0.9503     1.0000     0.0497     0.9975     0.9975     0.0000
  7 H      0.9503     1.0000     0.0497     0.9975     0.9975     0.0000
  8 H      0.8278     1.0000     0.1722     0.9704     0.9704     0.0000
  9 H      1.0200     1.0000    -0.0200     0.9996     0.5842     0.4154

  Mayer bond orders larger than 0.1
B(  0-C ,  1-C ) :   0.9970 B(  0-C ,  3-H ) :   0.4904 B(  0-C ,  4-H ) :   0.9775 
B(  0-C ,  5-H ) :   0.9775 B(  0-C ,  9-H ) :   0.1341 B(  1-C ,  2-O ) :   0.9826 
B(  1-C ,  6-H ) :   0.9651 B(  1-C ,  7-H ) :   0.9651 B(  2-O ,  8-H ) :   0.9492 
B(  3-H ,  9-H ) :   0.4377 

-------
TIMINGS
-------

Total SCF time: 0 days 0 hours 0 min 0 sec 

Total time                  ....       0.709 sec
Sum of individual times     ....       0.706 sec  ( 99.7%)

Fock matrix formation       ....       0.703 sec  ( 99.3%)
Diagonalization             ....       0.002 sec  (  0.2%)
Density matrix formation    ....       0.000 sec  (  0.0%)
Population analysis         ....       0.001 sec  (  0.1%)
Initial guess               ....       0.000 sec  (  0.0%)
Orbital Transformation      ....       0.000 sec  (  0.0%)
Orbital Orthonormalization  ....       0.000 sec  (  0.0%)
DIIS solution               ....       0.001 sec  (  0.1%)

-------------------------   --------------------
FINAL SINGLE POINT ENERGY      -152.563743738180
-------------------------   --------------------

                                *** OPTIMIZATION RUN DONE ***

                            ***************************************
                            *     ORCA property calculations      *
                            ***************************************

                                    ---------------------
                                    Active property flags
                                    ---------------------
   (+) Dipole Moment


------------------------------------------------------------------------------
                       ORCA ELECTRIC PROPERTIES CALCULATION
------------------------------------------------------------------------------

Dipole Moment Calculation                       ... on
Quadrupole Moment Calculation                   ... off
Polarizability Calculation                      ... off
GBWName                                         ... TSB_5.gbw
Electron density file                           ... TSB_5.scfp.tmp
The origin for moment calculation is the CENTER OF MASS  = ( 0.017521, -0.009348  0.000004)

-------------
DIPOLE MOMENT
-------------
                                X             Y             Z
Electronic contribution:     -5.65947      -0.12075       0.00002
Nuclear contribution   :      5.70526       0.62699      -0.00002
                        -----------------------------------------
Total Dipole Moment    :      0.04579       0.50624      -0.00000
                        -----------------------------------------
Magnitude (a.u.)       :      0.50830
Magnitude (Debye)      :      1.29200


-------------------------------------------------------------------------------
                               ORCA SCF HESSIAN
-------------------------------------------------------------------------------

Hessian of the Hartree-Fock SCF energy:
Hartree-Fock type                                ... UHF
Number of operators                              ...    2
Number of atoms                                  ...   10
Basis set dimensions                             ...   22
Integral neglect threshold                       ... 2.5e-11
Integral primitive cutoff                        ... 2.5e-12

Nuclear repulsion Hessian                        ... done   (      0.0 sec)

----------------------------------------------
Forming right-hand sides of CP-SCF equations     ...
----------------------------------------------
One electron integral derivatives                ... done   (      0.1 sec)
Transforming the overlap derivative matrices     ... done   (      0.0 sec)
Making the Q(x) pseudodensities                  ... done   (      0.0 sec)
Adding the E*S(x)*S(y) terms to the Hessian      ... done   (      0.0 sec)
Calculating energy weighted overlap derivatives  ... done   (      0.0 sec)
Two electron integral derivatives                ... done   (      0.1 sec)
tr(F(y)Q(x)) contribution to the Hessian         ... done   (      0.0 sec)
Response fock operator R(S(x))                   ... done   (      0.1 sec)
tr(F(y)S(x)) contribution to the Hessian         ... done   (      0.0 sec)
Transforming and finalizing RHSs                 ... done   (      0.0 sec)

----------------------------------------------
Solving the CP-SCF equations                     ...
----------------------------------------------
     CP-SCF ITERATION   0: 
     CP-SCF ITERATION   1:      0.000945414294
     CP-SCF ITERATION   2:      0.000083395990
     CP-SCF ITERATION   3:      0.000008361231
     CP-SCF ITERATION   4:      0.000001531707
     CP-SCF ITERATION   5:      0.000000265800
     CP-SCF ITERATION   6:      0.000000028318
     CP-SCF ITERATION   7:      0.000000009665

                                                 ... done   (      0.9 sec)
Forming perturbed density Hessian contributions  ... done   (      0.0 sec)
Making the perturbed densities                   ... done   (      0.0 sec)
2nd integral derivative contribs                 ... done   (      0.4 sec)
Dipol derivatives                                ... done   (      0.1 sec)

Total SCF Hessian time: 0 days 0 hours 0 min 1 sec 

Writing the Hessian file to the disk             ... done


-----------------------
VIBRATIONAL FREQUENCIES
-----------------------

   0:         0.00 cm**-1
   1:         0.00 cm**-1
   2:         0.00 cm**-1
   3:         0.00 cm**-1
   4:         0.00 cm**-1
   5:         0.00 cm**-1
   6:     -2759.27 cm**-1 ***imaginary mode***
   7:       134.16 cm**-1
   8:       333.74 cm**-1
   9:       347.40 cm**-1
  10:       506.89 cm**-1
  11:       709.15 cm**-1
  12:       969.92 cm**-1
  13:      1140.44 cm**-1
  14:      1228.72 cm**-1
  15:      1336.76 cm**-1
  16:      1343.37 cm**-1
  17:      1507.25 cm**-1
  18:      1529.89 cm**-1
  19:      1574.19 cm**-1
  20:      1591.18 cm**-1
  21:      1734.59 cm**-1
  22:      1784.06 cm**-1
  23:      1803.10 cm**-1
  24:      1839.63 cm**-1
  25:      3540.47 cm**-1
  26:      3623.93 cm**-1
  27:      3651.86 cm**-1
  28:      3766.97 cm**-1
  29:      4223.58 cm**-1


------------
NORMAL MODES
------------

These modes are the cartesian displacements weighted by the diagonal matrix
M(i,i)=1/sqrt(m[i]) where m[i] is the mass of the displaced atom
Thus, these vectors are normalized but *not* orthogonal

                  0          1          2          3          4          5    
      0       0.000000   0.000000   0.000000   0.000000   0.000000   0.000000
      1       0.000000   0.000000   0.000000   0.000000   0.000000   0.000000
      2       0.000000   0.000000   0.000000   0.000000   0.000000   0.000000
      3       0.000000   0.000000   0.000000   0.000000   0.000000   0.000000
      4       0.000000   0.000000   0.000000   0.000000   0.000000   0.000000
      5       0.000000   0.000000   0.000000   0.000000   0.000000   0.000000
      6       0.000000   0.000000   0.000000   0.000000   0.000000   0.000000
      7       0.000000   0.000000   0.000000   0.000000   0.000000   0.000000
      8       0.000000   0.000000   0.000000   0.000000   0.000000   0.000000
      9       0.000000   0.000000   0.000000   0.000000   0.000000   0.000000
     10       0.000000   0.000000   0.000000   0.000000   0.000000   0.000000
     11       0.000000   0.000000   0.000000   0.000000   0.000000   0.000000
     12       0.000000   0.000000   0.000000   0.000000   0.000000   0.000000
     13       0.000000   0.000000   0.000000   0.000000   0.000000   0.000000
     14       0.000000   0.000000   0.000000   0.000000   0.000000   0.000000
     15       0.000000   0.000000   0.000000   0.000000   0.000000   0.000000
     16       0.000000   0.000000   0.000000   0.000000   0.000000   0.000000
     17       0.000000   0.000000   0.000000   0.000000   0.000000   0.000000
     18       0.000000   0.000000   0.000000   0.000000   0.000000   0.000000
     19       0.000000   0.000000   0.000000   0.000000   0.000000   0.000000
     20       0.000000   0.000000   0.000000   0.000000   0.000000   0.000000
     21       0.000000   0.000000   0.000000   0.000000   0.000000   0.000000
     22       0.000000   0.000000   0.000000   0.000000   0.000000   0.000000
     23       0.000000   0.000000   0.000000   0.000000   0.000000   0.000000
     24       0.000000   0.000000   0.000000   0.000000   0.000000   0.000000
     25       0.000000   0.000000   0.000000   0.000000   0.000000   0.000000
     26       0.000000   0.000000   0.000000   0.000000   0.000000   0.000000
     27       0.000000   0.000000   0.000000   0.000000   0.000000   0.000000
     28       0.000000   0.000000   0.000000   0.000000   0.000000   0.000000
     29       0.000000   0.000000   0.000000   0.000000   0.000000   0.000000
                  6          7          8          9         10         11    
      0       0.059370   0.000000  -0.048233  -0.000000   0.198349   0.000000
      1       0.021203  -0.000000   0.085219   0.000001   0.054361   0.000000
      2       0.000000   0.059560   0.000000   0.026693  -0.000000  -0.079381
      3      -0.004366   0.000001  -0.016231  -0.000000  -0.064536  -0.000000
      4      -0.003173   0.000000   0.107227   0.000001  -0.111371  -0.000000
      5       0.000000   0.104892   0.000000  -0.037050   0.000000   0.002915
      6       0.000344  -0.000001   0.058173   0.000000  -0.178655  -0.000000
      7       0.000789  -0.000000  -0.090945  -0.000001   0.073585   0.000000
      8      -0.000000  -0.097927   0.000001  -0.060562   0.000001   0.003021
      9      -0.861722   0.000000   0.097660   0.000001   0.228943   0.000000
     10      -0.337932   0.000000  -0.257446  -0.000002   0.007499   0.000001
     11      -0.000001  -0.363452  -0.000000   0.022240  -0.000000  -0.225203
     12      -0.064610   0.243969  -0.156256  -0.012660   0.344906   0.343410
     13      -0.008936   0.138154   0.085866   0.054935   0.021099   0.360985
     14      -0.024402   0.174912  -0.008570   0.063189  -0.008163   0.196289
     15      -0.064610  -0.243970  -0.156256   0.012657   0.344906  -0.343409
     16      -0.008936  -0.138155   0.085865  -0.054933   0.021103  -0.360986
     17       0.024402   0.174912   0.008571   0.063189   0.008159   0.196288
     18      -0.001175  -0.085949  -0.077309  -0.010203  -0.082191   0.043680
     19      -0.000760  -0.096086   0.117645   0.004198  -0.094513  -0.121674
     20      -0.001021   0.190068   0.005066  -0.041574  -0.008345   0.079695
     21      -0.001175   0.085951  -0.077309   0.010201  -0.082190  -0.043679
     22      -0.000760   0.096087   0.117643  -0.004196  -0.094515   0.121674
     23       0.001021   0.190066  -0.005067  -0.041574   0.008344   0.079695
     24      -0.002693  -0.000000  -0.085372   0.000004   0.019408  -0.000000
     25      -0.001284   0.000000  -0.190188   0.000002   0.213340   0.000000
     26       0.000000  -0.052662  -0.000013   0.987265  -0.000000  -0.031301
     27       0.335104   0.000000   0.299652   0.000003   0.467357   0.000000
     28       0.131241   0.000001  -0.809023  -0.000008  -0.562635  -0.000001
     29       0.000000  -0.719093  -0.000001   0.031908  -0.000003   0.567730
                 12         13         14         15         16         17    
      0       0.000000   0.167644   0.035523   0.058818   0.000001   0.000000
      1       0.000000  -0.176781   0.106434  -0.032190  -0.000000   0.000000
      2      -0.016363  -0.000000  -0.000000  -0.000001   0.076904   0.092402
      3      -0.000000  -0.002720   0.091464  -0.221287  -0.000002  -0.000001
      4      -0.000000   0.216446  -0.090133  -0.077321  -0.000001  -0.000000
      5      -0.077352  -0.000000  -0.000000   0.000003  -0.150254  -0.050968
      6      -0.000000  -0.098089  -0.063685   0.177109   0.000001   0.000000
      7       0.000000  -0.019497  -0.028646   0.080834   0.000001   0.000000
      8       0.028458   0.000000   0.000000  -0.000002   0.051429  -0.020243
      9      -0.000000   0.364064   0.304183   0.205388   0.000003   0.000001
     10       0.000001  -0.448709  -0.259823  -0.152395  -0.000001   0.000001
     11       0.185657  -0.000000   0.000001   0.000002  -0.152140  -0.108788
     12      -0.376165  -0.152068  -0.557211  -0.178308   0.247300   0.184970
     13       0.265285  -0.208413   0.137457  -0.072924  -0.261511  -0.247300
     14       0.131910  -0.029425  -0.031908  -0.037864  -0.078334  -0.052382
     15       0.376168  -0.152067  -0.557208  -0.178304  -0.247306  -0.184973
     16      -0.265286  -0.208415   0.137454  -0.072929   0.261510   0.247300
     17       0.131909   0.029425   0.031909   0.037866  -0.078333  -0.052380
     18       0.062797  -0.115287   0.009753  -0.559843  -0.484875   0.570053
     19      -0.428208   0.267831  -0.077168   0.031615  -0.281495  -0.253160
     20       0.214267  -0.000547  -0.003174  -0.001079   0.141384   0.007816
     21      -0.062796  -0.115289   0.009752  -0.559855   0.484872  -0.570046
     22       0.428210   0.267830  -0.077169   0.031612   0.281496   0.253157
     23       0.214265   0.000546   0.003174   0.001083   0.141377   0.007820
     24      -0.000001  -0.321290   0.215879   0.297709   0.000000  -0.000004
     25      -0.000000  -0.162506   0.173725   0.133137  -0.000000  -0.000003
     26      -0.033045   0.000002  -0.000002  -0.000002   0.008865  -0.017652
     27       0.000001   0.083623   0.072518   0.098066   0.000002   0.000002
     28      -0.000000   0.329199   0.225957   0.123777   0.000002   0.000001
     29      -0.179973   0.000000  -0.000000  -0.000001   0.074918   0.043162
                 18         19         20         21         22         23    
      0      -0.031799   0.037657  -0.000000  -0.060180   0.092729   0.094091
      1      -0.009927  -0.071864   0.000000   0.032137   0.077165  -0.063625
      2       0.000001   0.000000   0.041230   0.000000   0.000000  -0.000000
      3       0.102558   0.045356  -0.000000  -0.065853  -0.009844  -0.137302
      4       0.032188   0.023581  -0.000000   0.060161  -0.013320   0.060698
      5      -0.000001  -0.000000   0.013501   0.000000   0.000000   0.000000
      6      -0.042993  -0.018878   0.000000  -0.007429   0.000456   0.002598
      7      -0.052659  -0.015682   0.000000  -0.052418   0.004516  -0.040637
      8       0.000000   0.000000  -0.001061   0.000000  -0.000000   0.000000
      9      -0.112859  -0.200754   0.000001   0.132338  -0.165460  -0.096644
     10      -0.206057   0.795113  -0.000004   0.021153   0.016036   0.002077
     11      -0.000002  -0.000005  -0.834933  -0.000000   0.000000   0.000000
     12       0.225282  -0.273598  -0.350049   0.075593  -0.105796  -0.104912
     13       0.051203  -0.055131  -0.034693  -0.353971  -0.334381   0.319848
     14       0.057008  -0.005726  -0.013043  -0.239678  -0.300402   0.242623
     15       0.225278  -0.273594   0.350051   0.075594  -0.105796  -0.104912
     16       0.051208  -0.055130   0.034694  -0.353971  -0.334381   0.319848
     17      -0.057009   0.005725  -0.013042   0.239677   0.300401  -0.242622
     18      -0.368644  -0.143286  -0.011835   0.245638   0.040193   0.358225
     19       0.189995   0.105681   0.027057  -0.014712   0.057354  -0.025587
     20      -0.010748  -0.015193  -0.000183  -0.009406  -0.057283  -0.039874
     21      -0.368650  -0.143286   0.011837   0.245638   0.040193   0.358224
     22       0.190000   0.105681  -0.027059  -0.014712   0.057355  -0.025586
     23       0.010752   0.015193  -0.000184   0.009403   0.057282   0.039870
     24       0.515578   0.120312  -0.000001   0.463685  -0.035776   0.397001
     25       0.352472   0.087369  -0.000001   0.285786  -0.022274   0.238743
     26      -0.000004  -0.000001  -0.000737  -0.000004   0.000000  -0.000003
     27      -0.276747   0.224678  -0.000002   0.381196  -0.662438  -0.333344
     28      -0.058270  -0.159353   0.000001   0.162610  -0.272131  -0.149484
     29       0.000001   0.000001   0.226806   0.000000  -0.000001  -0.000000
                 24         25         26         27         28         29    
      0      -0.021339  -0.001059  -0.006365   0.000000  -0.000000  -0.000023
      1      -0.000157   0.002903  -0.068887   0.000000  -0.000000   0.000250
      2      -0.000000   0.000000   0.000000   0.005648  -0.098053   0.000000
      3      -0.015765  -0.018158  -0.002467  -0.000000  -0.000000  -0.003752
      4      -0.094190  -0.068806   0.001681   0.000000   0.000000  -0.003861
      5       0.000000  -0.000000  -0.000000  -0.096182  -0.004314   0.000000
      6       0.003277  -0.000845  -0.000105   0.000000   0.000000   0.039466
      7       0.003721   0.000648  -0.000023  -0.000000  -0.000000  -0.049283
      8      -0.000000   0.000000   0.000000  -0.000018   0.000054   0.000000
      9       0.034937   0.002310  -0.001187  -0.000000  -0.000000   0.000741
     10      -0.025641  -0.001047   0.002194   0.000000   0.000000  -0.000202
     11      -0.000000   0.000000  -0.000000   0.000946   0.000906  -0.000000
     12       0.017807  -0.003406   0.045533   0.006738  -0.051923  -0.000623
     13       0.030386  -0.000221   0.389946   0.017666  -0.392896   0.000792
     14       0.025126   0.006742  -0.585889  -0.030174   0.580313  -0.000408
     15       0.017807  -0.003406   0.045532  -0.006738   0.051924  -0.000623
     16       0.030385  -0.000221   0.389940  -0.017668   0.392899   0.000792
     17      -0.025126  -0.006742   0.585883  -0.030176   0.580321   0.000408
     18       0.137863   0.119509   0.000221   0.115468   0.001981  -0.001688
     19       0.512321   0.393553   0.006872   0.398751   0.022849   0.004953
     20      -0.451656   0.572846   0.005287   0.567221   0.028718   0.006023
     21       0.137867   0.119502   0.000220  -0.115464  -0.001981  -0.001688
     22       0.512323   0.393545   0.006871  -0.398753  -0.022849   0.004953
     23       0.451652  -0.572842  -0.005286   0.567233   0.028718  -0.006023
     24      -0.047331   0.007845   0.001324  -0.000000  -0.000000  -0.577496
     25      -0.037754  -0.010833  -0.000228   0.000000   0.000000   0.813850
     26       0.000000   0.000000  -0.000000   0.003968   0.000070  -0.000001
     27       0.091156   0.000049   0.015263  -0.000000   0.000000  -0.000037
     28       0.043120   0.000218   0.005570  -0.000000   0.000000   0.000116
     29       0.000000  -0.000000   0.000000   0.000041  -0.000140  -0.000000


-----------
IR SPECTRUM
-----------

 Mode    freq (cm**-1)   T**2         TX         TY         TZ
-------------------------------------------------------------------
   7:       134.16    3.062254  (  0.000011   0.000007   1.749930)
   8:       333.74    4.093677  ( -1.936243   0.587060  -0.000105)
   9:       347.40   81.400335  (  0.000016   0.000039   9.022213)
  10:       506.89    4.721952  (  2.169976   0.114707  -0.000005)
  11:       709.15    0.003735  (  0.000010   0.000001   0.061114)
  12:       969.92    0.227136  ( -0.000006  -0.000004  -0.476588)
  13:      1140.44    0.891084  ( -0.867453  -0.372303   0.000011)
  14:      1228.72   10.651575  (  3.253725  -0.254652  -0.000005)
  15:      1336.76    1.364281  ( -0.633004  -0.981625   0.000027)
  16:      1343.37    7.471540  ( -0.000030  -0.000022  -2.733412)
  17:      1507.25    0.965981  ( -0.000033  -0.000003   0.982843)
  18:      1529.89   26.649061  (  5.159181   0.178652  -0.000030)
  19:      1574.19    4.327782  (  2.055530   0.320276  -0.000017)
  20:      1591.18    1.458710  ( -0.000020  -0.000000  -1.207771)
  21:      1734.59    6.521086  ( -0.931358   2.377743  -0.000010)
  22:      1784.06    1.446215  ( -1.198515  -0.098884   0.000002)
  23:      1803.10    6.076820  ( -1.914987   1.552303   0.000003)
  24:      1839.63    0.666633  ( -0.690078  -0.436378   0.000006)
  25:      3540.47    6.947140  ( -1.180513  -2.356593  -0.000011)
  26:      3623.93    1.234911  (  0.967026  -0.547513  -0.000001)
  27:      3651.86   11.998572  ( -0.000010   0.000005  -3.463895)
  28:      3766.97    0.892198  (  0.000006  -0.000006  -0.944562)
  29:      4223.58   26.317861  (  2.488090  -4.486342   0.000009)

The first frequency considered to be a vibration is 7
The total number of vibrations considered is 23


--------------------------
THERMOCHEMISTRY AT 298.15K
--------------------------

Temperature         ... 298.15 K
Pressure            ... 1.00 atm
Total Mass          ... 47.08 AMU

Throughout the following assumptions are being made:
  (1) The electronic state is orbitally nondegenerate
      but the spin degeneracy is treated
  (2) There are no thermally accessible electronically excited states
  (3) Hindered rotations indicated by low frequency modes are not
      treated as such but are treated as vibrations and this may
      cause some error
  (4) All equations used are the standard statistical mechanics
      equations for an ideal gas
  (5) All vibrations are strictly harmonic

freq.     134.16  E(vib)   ...       0.42 
freq.     333.74  E(vib)   ...       0.24 
freq.     347.40  E(vib)   ...       0.23 
freq.     506.89  E(vib)   ...       0.14 
freq.     709.15  E(vib)   ...       0.07 
freq.     969.92  E(vib)   ...       0.03 
freq.    1140.44  E(vib)   ...       0.01 
freq.    1228.72  E(vib)   ...       0.01 
freq.    1336.76  E(vib)   ...       0.01 
freq.    1343.37  E(vib)   ...       0.01 
freq.    1507.25  E(vib)   ...       0.00 
freq.    1529.89  E(vib)   ...       0.00 
freq.    1574.19  E(vib)   ...       0.00 
freq.    1591.18  E(vib)   ...       0.00 
freq.    1734.59  E(vib)   ...       0.00 
freq.    1784.06  E(vib)   ...       0.00 
freq.    1803.10  E(vib)   ...       0.00 
freq.    1839.63  E(vib)   ...       0.00 
freq.    3540.47  E(vib)   ...       0.00 
freq.    3623.93  E(vib)   ...       0.00 
freq.    3651.86  E(vib)   ...       0.00 
freq.    3766.97  E(vib)   ...       0.00 
freq.    4223.58  E(vib)   ...       0.00 

------------
INNER ENERGY
------------

The inner energy is: U= E(el) + E(ZPE) + E(vib) + E(rot) + E(trans)
    E(el)   - is the total energy from the electronic structure calculation
              = E(kin-el) + E(nuc-el) + E(el-el) + E(nuc-nuc)
    E(ZPE)  - the the zero temperature vibrational energy from the frequency calculation
    E(vib)  - the the finite temperature correction to E(ZPE) due to population
              of excited vibrational states
    E(rot)  - is the rotational thermal energy
    E(trans)- is the translational thermal energy

Summary of contributions to the inner energy U:
Electronic energy                ...   -152.56374374 Eh
Zero point energy                ...      0.09163076 Eh      57.50 kcal/mol
Thermal vibrational correction   ...      0.00186178 Eh       1.17 kcal/mol
Thermal rotational correction    ...      0.00141627 Eh       0.89 kcal/mol
Thermal translational correction ...      0.00141627 Eh       0.89 kcal/mol
-----------------------------------------------------------------------
Total thermal energy                   -152.46741866 Eh


Summary of corrections to the electronic energy:
(perhaps to be used in another calculation)
Total thermal correction                  0.00469433 Eh       2.95 kcal/mol
Non-thermal (ZPE) correction              0.09163076 Eh      57.50 kcal/mol
-----------------------------------------------------------------------
Total correction                          0.09632508 Eh      60.44 kcal/mol


--------
ENTHALPY
--------

The enthalpy is H = U + kB*T
                kB is Boltzmann's constant
Total free energy                 ...   -152.46741866 Eh 
Thermal Enthalpy correction       ...      0.00094421 Eh       0.59 kcal/mol
-----------------------------------------------------------------------
Total Enthalpy                    ...   -152.46647445 Eh


Vibrational entropy computed according to the QRRHO of S. Grimme
Chem.Eur.J. 2012 18 9955


-------
ENTROPY
-------

The entropy contributions are T*S = T*(S(el)+S(vib)+S(rot)+S(trans)
     S(el)   - electronic entropy
     S(vib)  - vibrational entropy
     S(rot)  - rotational entropy
     S(trans)- translational entropy
The entropies will be listed as mutliplied by the temperature to get
units of energy

Electronic entropy                ...      0.00065446 Eh      0.41 kcal/mol
Vibrational entropy               ...      0.00307274 Eh      1.93 kcal/mol
Rotational entropy                ...      0.00977802 Eh      6.14 kcal/mol
Translational entropy             ...      0.01780424 Eh     11.17 kcal/mol
-----------------------------------------------------------------------
Final entropy term                ...      0.03130946 Eh     19.65 kcal/mol


CAUTION: The rotational entropy is not quite correctly treated here
         because it includes a symmetry number that is not yet correctly
         implemented in ORCA!
For a nonlinear molecule the correct rotational entropy is:
    S(rot) = R*(ln(qrot/sn)+1.5)
    R    = 8.31441 J/mol/K = 1.987191683e-3 kcal/mol/K
    qrot = 21050.8505449
    sn is the rotational symmetry number. We have assumed 3 here
       if it is different for your molecule then you should correct
       the printed rotational entropy by manually evaluating the equation
       as given above

For convenience we print out the resulting values for sn=1 - 12:
 sn= 1  qrot/sn=   21050.8505 T*S(rot)=     6.79 kcal/mol T*S(tot)=    20.30 kcal/mol
 sn= 2  qrot/sn=   10525.4253 T*S(rot)=     6.38 kcal/mol T*S(tot)=    19.89 kcal/mol
 sn= 3  qrot/sn=    7016.9502 T*S(rot)=     6.14 kcal/mol T*S(tot)=    19.65 kcal/mol
 sn= 4  qrot/sn=    5262.7126 T*S(rot)=     5.97 kcal/mol T*S(tot)=    19.48 kcal/mol
 sn= 5  qrot/sn=    4210.1701 T*S(rot)=     5.83 kcal/mol T*S(tot)=    19.34 kcal/mol
 sn= 6  qrot/sn=    3508.4751 T*S(rot)=     5.73 kcal/mol T*S(tot)=    19.24 kcal/mol
 sn= 7  qrot/sn=    3007.2644 T*S(rot)=     5.63 kcal/mol T*S(tot)=    19.14 kcal/mol
 sn= 8  qrot/sn=    2631.3563 T*S(rot)=     5.55 kcal/mol T*S(tot)=    19.07 kcal/mol
 sn= 9  qrot/sn=    2338.9834 T*S(rot)=     5.48 kcal/mol T*S(tot)=    19.00 kcal/mol
 sn=10  qrot/sn=    2105.0851 T*S(rot)=     5.42 kcal/mol T*S(tot)=    18.93 kcal/mol
 sn=11  qrot/sn=    1913.7137 T*S(rot)=     5.37 kcal/mol T*S(tot)=    18.88 kcal/mol
 sn=12  qrot/sn=    1754.2375 T*S(rot)=     5.31 kcal/mol T*S(tot)=    18.83 kcal/mol


-------------------
GIBBS FREE ENTHALPY
-------------------

The Gibbs free enthalpy is G = H - T*S

Total enthalpy                    ...   -152.46647445 Eh 
Total entropy correction          ...     -0.03130946 Eh    -19.65 kcal/mol
-----------------------------------------------------------------------
Final Gibbs free enthalpy         ...   -152.49778390 Eh

For completeness - the Gibbs free enthalpy minus the electronic energy
G-E(el)                           ...      0.06595983 Eh     41.39 kcal/mol


Timings for individual modules:

Sum of individual times         ...        4.524 sec (=   0.075 min)
GTO integral calculation        ...        0.287 sec (=   0.005 min)   6.3 %
SCF iterations                  ...        2.374 sec (=   0.040 min)  52.5 %
SCF Gradient evaluation         ...        0.137 sec (=   0.002 min)   3.0 %
Geometry relaxation             ...        0.023 sec (=   0.000 min)   0.5 %
Analytical frequency calculation...        1.703 sec (=   0.028 min)  37.6 %
                             ****ORCA TERMINATED NORMALLY****
TOTAL RUN TIME: 0 days 0 hours 0 minutes 4 seconds 647 msec
