
                                 *****************
                                 * O   R   C   A *
                                 *****************

           --- An Ab Initio, DFT and Semiempirical electronic structure package ---

                  #######################################################
                  #                        -***-                        #
                  #  Department of molecular theory and spectroscopy    #
                  #              Directorship: Frank Neese              #
                  # Max Planck Institute for Chemical Energy Conversion #
                  #                  D-45470 Muelheim/Ruhr              #
                  #                       Germany                       #
                  #                                                     #
                  #                  All rights reserved                #
                  #                        -***-                        #
                  #######################################################


                         Program Version 4.0.1.2 - RELEASE -


 With contributions from (in alphabetic order):
   Daniel Aravena         : Magnetic Properties
   Michael Atanasov       : Ab Initio Ligand Field Theory
   Ute Becker             : Parallelization
   Martin Brehm           : Molecular dynamics
   Dmytro Bykov           : SCF Hessian
   Vijay G. Chilkuri      : MRCI spin determinant printing
   Dipayan Datta          : RHF DLPNO-CCSD density
   Achintya Kumar Dutta   : EOM-CC, STEOM-CC
   Dmitry Ganyushin       : Spin-Orbit,Spin-Spin,Magnetic field MRCI
   Yang Guo               : DLPNO-NEVPT2, CIM, IAO-localization
   Andreas Hansen         : Spin unrestricted coupled pair/coupled cluster methods
   Lee Huntington         : MR-EOM, pCC
   Robert Izsak           : Overlap fitted RIJCOSX, COSX-SCS-MP3, EOM
   Christian Kollmar      : KDIIS, OOCD, Brueckner-CCSD(T), CCSD density
   Simone Kossmann        : Meta GGA functionals, TD-DFT gradient, OOMP2, MP2 Hessian
   Martin Krupicka        : AUTO-CI
   Dagmar Lenk            : GEPOL surface
   Dimitrios Liakos       : Extrapolation schemes; parallel MDCI
   Dimitrios Manganas     : ROCIS; embedding schemes
   Dimitrios Pantazis     : SARC Basis sets
   Taras Petrenko         : DFT Hessian,TD-DFT gradient, ASA, ECA, R-Raman, ABS, FL, XAS/XES, NRVS
   Peter Pinski           : DLPNO-MP2
   Christoph Reimann      : Effective Core Potentials
   Marius Retegan         : Local ZFS, SOC
   Christoph Riplinger    : Optimizer, TS searches, QM/MM, DLPNO-CCSD(T), (RO)-DLPNO pert. Triples
   Tobias Risthaus        : Range-separated hybrids, TD-DFT gradient, RPA, STAB
   Michael Roemelt        : Restricted open shell CIS
   Masaaki Saitow         : Open-shell DLPNO
   Barbara Sandhoefer     : DKH picture change effects
   Kantharuban Sivalingam : CASSCF convergence, NEVPT2, FIC-MRCI
   Georgi Stoychev        : AutoAux
   Boris Wezisla          : Elementary symmetry handling
   Frank Wennmohs         : Technical directorship


 We gratefully acknowledge several colleagues who have allowed us to
 interface, adapt or use parts of their codes:
   Stefan Grimme, W. Hujo, H. Kruse,             : VdW corrections, initial TS optimization,
                  C. Bannwarth                     DFT functionals, gCP, sTDA/sTD-DF
   Ed Valeev                                     : LibInt (2-el integral package), F12 methods
   Garnet Chan, S. Sharma, J. Yang, R. Olivares  : DMRG
   Ulf Ekstrom                                   : XCFun DFT Library
   Mihaly Kallay                                 : mrcc  (arbitrary order and MRCC methods)
   Andreas Klamt, Michael Diedenhofen            : otool_cosmo (COSMO solvation model)
   Jiri Pittner, Ondrej Demel                    : Mk-CCSD
   Frank Weinhold                                : gennbo (NPA and NBO analysis)
   Christopher J. Cramer and Donald G. Truhlar   : smd solvation model


 Your calculation uses the libint2 library for the computation of 2-el integrals
 For citations please refer to: http://libint.valeyev.net

 This ORCA versions uses:
   CBLAS   interface :  Fast vector & matrix operations
   LAPACKE interface :  Fast linear algebra routines
   SCALAPACK package :  Parallel linear algebra routines


Your calculation utilizes the basis: STO-3G
   H-Ne       : W. J. Hehre, R. F. Stewart and J. A. Pople, J. Chem. Phys. 2657 (1969).
   Na-Ar      : W. J. Hehre, R. Ditchfield, R. F. Stewart and J. A. Pople, J. Chem. Phys. 2769 (1970).
   K,Ca,Ga-Kr : W. J. Pietro, B. A. Levy, W. J. Hehre and R. F. Stewart, J. Am. Chem. Soc. 19, 2225 (1980).
   Sc-Zn,Y-Cd : W. J. Pietro and W. J. Hehre, J. Comp. Chem. 4, 241 (1983).

================================================================================
                                        WARNINGS
                       Please study these warnings very carefully!
================================================================================

Warning: TCutStore was < 0. Adjusted to Thresh (uncritical)

WARNING: Geometry Optimization
  ===> : Switching off AutoStart
         For restart on a previous wavefunction, please use MOREAD

INFO   : the flag for use of LIBINT has been found!

================================================================================
                                       INPUT FILE
================================================================================
NAME = et1.inp
|  1> %pal nprocs 1 end
|  2> ! hf sto-3g TightSCF
|  3> ! Opt Freq
|  4> * xyz 0 1
|  5>  6    0.032981    0.561901   -0.000133
|  6>  6    1.239656   -0.397906   -0.000145
|  7>  1    2.167576    0.165867    0.000018
|  8>  1    1.216438   -1.031813    0.880741
|  9>  1    1.216624   -1.031608   -0.881182
| 10>  1    0.082538    1.211196    0.883200
| 11>  1    0.082382    1.211018   -0.883602
| 12>  8   -1.169940   -0.221411    0.000056
| 13>  1   -1.894839    0.453955   -0.000170
| 14> *
| 15> 
| 16> 
| 17>                          ****END OF INPUT****
================================================================================

                       *****************************
                       * Geometry Optimization Run *
                       *****************************

Geometry optimization settings:
Update method            Update   .... BFGS
Choice of coordinates    CoordSys .... Redundant Internals
Initial Hessian          InHess   .... Almoef's Model

Convergence Tolerances:
Energy Change            TolE     ....  5.0000e-06 Eh
Max. Gradient            TolMAXG  ....  3.0000e-04 Eh/bohr
RMS Gradient             TolRMSG  ....  1.0000e-04 Eh/bohr
Max. Displacement        TolMAXD  ....  4.0000e-03 bohr
RMS Displacement         TolRMSD  ....  2.0000e-03 bohr

------------------------------------------------------------------------------
                        ORCA OPTIMIZATION COORDINATE SETUP
------------------------------------------------------------------------------

The optimization will be done in new redundant internal coordinates
Making redundant internal coordinates   ...  (new redundants) done
Evaluating the initial hessian          ...  (Almloef) done
Evaluating the coordinates              ...  done
Calculating the B-matrix                .... done
Calculating the G-matrix                .... done
Diagonalizing the G-matrix              .... done
The first mode is                       ....   12
The number of degrees of freedom        ....   21

    -----------------------------------------------------------------
                    Redundant Internal Coordinates


    -----------------------------------------------------------------
         Definition                    Initial Value    Approx d2E/dq
    -----------------------------------------------------------------
      1. B(C   1,C   0)                  1.5418         0.357664   
      2. B(H   2,C   1)                  1.0858         0.365752   
      3. B(H   3,C   1)                  1.0855         0.366086   
      4. B(H   4,C   1)                  1.0855         0.366087   
      5. B(H   5,C   0)                  1.0974         0.350425   
      6. B(H   6,C   0)                  1.0974         0.350428   
      7. B(O   7,C   0)                  1.4355         0.473498   
      8. B(H   8,O   7)                  0.9908         0.464405   
      9. A(C   1,C   0,O   7)          108.4296         0.373276   
     10. A(C   1,C   0,H   6)          109.4494         0.320581   
     11. A(H   6,C   0,O   7)          111.1369         0.333732   
     12. A(H   5,C   0,O   7)          111.1366         0.333732   
     13. A(H   5,C   0,H   6)          107.2177         0.288367   
     14. A(C   1,C   0,H   5)          109.4495         0.320580   
     15. A(H   2,C   1,H   3)          108.7464         0.292309   
     16. A(C   0,C   1,H   2)          110.2193         0.322835   
     17. A(H   2,C   1,H   4)          108.7464         0.292310   
     18. A(C   0,C   1,H   4)          110.2922         0.322883   
     19. A(C   0,C   1,H   3)          110.2904         0.322883   
     20. A(H   3,C   1,H   4)          108.4979         0.292351   
     21. A(C   0,O   7,H   8)          103.9548         0.346799   
     22. D(H   3,C   1,C   0,O   7)    -59.8958         0.010273   
     23. D(H   2,C   1,C   0,H   6)     58.6335         0.010273   
     24. D(H   3,C   1,C   0,H   5)     61.4875         0.010273   
     25. D(H   2,C   1,C   0,H   5)    -58.5996         0.010273   
     26. D(H   2,C   1,C   0,O   7)   -179.9829         0.010273   
     27. D(H   4,C   1,C   0,H   5)   -178.6878         0.010273   
     28. D(H   4,C   1,C   0,H   6)    -61.4547         0.010273   
     29. D(H   4,C   1,C   0,O   7)     59.9290         0.010273   
     30. D(H   3,C   1,C   0,H   6)    178.7206         0.010273   
     31. D(H   8,O   7,C   0,H   6)    -59.6474         0.017677   
     32. D(H   8,O   7,C   0,H   5)     59.6741         0.017677   
     33. D(H   8,O   7,C   0,C   1)   -179.9867         0.017677   
    -----------------------------------------------------------------

Number of atoms                         .... 9
Number of degrees of freedom            .... 33

         *************************************************************
         *                GEOMETRY OPTIMIZATION CYCLE   1            *
         *************************************************************
---------------------------------
CARTESIAN COORDINATES (ANGSTROEM)
---------------------------------
  C      0.032981    0.561901   -0.000133
  C      1.239656   -0.397906   -0.000145
  H      2.167576    0.165867    0.000018
  H      1.216438   -1.031813    0.880741
  H      1.216624   -1.031608   -0.881182
  H      0.082538    1.211196    0.883200
  H      0.082382    1.211018   -0.883602
  O     -1.169940   -0.221411    0.000056
  H     -1.894839    0.453955   -0.000170

----------------------------
CARTESIAN COORDINATES (A.U.)
----------------------------
  NO LB      ZA    FRAG     MASS         X           Y           Z
   0 C     6.0000    0    12.011    0.062325    1.061839   -0.000251
   1 C     6.0000    0    12.011    2.342610   -0.751933   -0.000274
   2 H     1.0000    0     1.008    4.096125    0.313443    0.000034
   3 H     1.0000    0     1.008    2.298735   -1.949844    1.664359
   4 H     1.0000    0     1.008    2.299086   -1.949457   -1.665193
   5 H     1.0000    0     1.008    0.155974    2.288829    1.669006
   6 H     1.0000    0     1.008    0.155679    2.288492   -1.669766
   7 O     8.0000    0    15.999   -2.210866   -0.418406    0.000106
   8 H     1.0000    0     1.008   -3.580727    0.857851   -0.000321

--------------------------------
INTERNAL COORDINATES (ANGSTROEM)
--------------------------------
 C      0   0   0     0.000000000000     0.00000000     0.00000000
 C      1   0   0     1.541847603694     0.00000000     0.00000000
 H      2   1   0     1.085760355004   110.21928634     0.00000000
 H      2   1   3     1.085512462005   110.29039466   120.08705589
 H      2   1   3     1.085511351022   110.29219834   239.91182734
 H      1   2   3     1.097413815369   109.44946923   301.40040999
 H      1   2   3     1.097410958780   109.44938522    58.63351196
 O      1   2   3     1.435477849814   108.42957909   180.01713362
 H      8   1   2     0.990756198685   103.95476863   180.01329790

---------------------------
INTERNAL COORDINATES (A.U.)
---------------------------
 C      0   0   0     0.000000000000     0.00000000     0.00000000
 C      1   0   0     2.913669711225     0.00000000     0.00000000
 H      2   1   0     2.051789718026   110.21928634     0.00000000
 H      2   1   3     2.051321268149   110.29039466   120.08705589
 H      2   1   3     2.051319168694   110.29219834   239.91182734
 H      1   2   3     2.073811566629   109.44946923   301.40040999
 H      1   2   3     2.073806168459   109.44938522    58.63351196
 O      1   2   3     2.712660007458   108.42957909   180.01713362
 H      8   1   2     1.872257881000   103.95476863   180.01329790

---------------------
BASIS SET INFORMATION
---------------------
There are 3 groups of distinct atoms

 Group   1 Type C   : 6s3p contracted to 2s1p pattern {33/3}
 Group   2 Type H   : 3s contracted to 1s pattern {3}
 Group   3 Type O   : 6s3p contracted to 2s1p pattern {33/3}

Atom   0C    basis set group =>   1
Atom   1C    basis set group =>   1
Atom   2H    basis set group =>   2
Atom   3H    basis set group =>   2
Atom   4H    basis set group =>   2
Atom   5H    basis set group =>   2
Atom   6H    basis set group =>   2
Atom   7O    basis set group =>   3
Atom   8H    basis set group =>   2
------------------------------------------------------------------------------
                           ORCA GTO INTEGRAL CALCULATION
------------------------------------------------------------------------------

                         BASIS SET STATISTICS AND STARTUP INFO

 # of primitive gaussian shells          ...   45
 # of primitive gaussian functions       ...   63
 # of contracted shells                  ...   15
 # of contracted basis functions         ...   21
 Highest angular momentum                ...    1
 Maximum contraction depth               ...    3
 Integral package used                   ... LIBINT
 Integral threshhold            Thresh   ...  2.500e-11
 Primitive cut-off              TCut     ...  2.500e-12


------------------------------ INTEGRAL EVALUATION ----------------------------


 * One electron integrals 
 Pre-screening matrix                    ... done
 Shell pair data                         ... done (   0.000 sec)

-------------------------------------------------------------------------------
                                 ORCA SCF
-------------------------------------------------------------------------------

------------
SCF SETTINGS
------------
Hamiltonian:
 Ab initio Hamiltonian  Method          .... Hartree-Fock(GTOs)


General Settings:
 Integral files         IntName         .... et1
 Hartree-Fock type      HFTyp           .... RHF
 Total Charge           Charge          ....    0
 Multiplicity           Mult            ....    1
 Number of Electrons    NEL             ....   26
 Basis Dimension        Dim             ....   21
 Nuclear Repulsion      ENuc            ....     81.0774687091 Eh

Convergence Acceleration:
 DIIS                   CNVDIIS         .... on
   Start iteration      DIISMaxIt       ....    12
   Startup error        DIISStart       ....  0.200000
   # of expansion vecs  DIISMaxEq       ....     5
   Bias factor          DIISBfac        ....   1.050
   Max. coefficient     DIISMaxC        ....  10.000
 Newton-Raphson         CNVNR           .... off
 SOSCF                  CNVSOSCF        .... on
   Start iteration      SOSCFMaxIt      ....   150
   Startup grad/error   SOSCFStart      ....  0.003300
 Level Shifting         CNVShift        .... on
   Level shift para.    LevelShift      ....    0.2500
   Turn off err/grad.   ShiftErr        ....    0.0010
 Zerner damping         CNVZerner       .... off
 Static damping         CNVDamp         .... on
   Fraction old density DampFac         ....    0.7000
   Max. Damping (<1)    DampMax         ....    0.9800
   Min. Damping (>=0)   DampMin         ....    0.0000
   Turn off err/grad.   DampErr         ....    0.1000
 Fernandez-Rico         CNVRico         .... off

SCF Procedure:
 Maximum # iterations   MaxIter         ....   125
 SCF integral mode      SCFMode         .... Direct
   Integral package                     .... LIBINT
 Reset frequeny         DirectResetFreq ....    20
 Integral Threshold     Thresh          ....  2.500e-11 Eh
 Primitive CutOff       TCut            ....  2.500e-12 Eh

Convergence Tolerance:
 Convergence Check Mode ConvCheckMode   .... Total+1el-Energy
 Convergence forced     ConvForced      .... 0
 Energy Change          TolE            ....  1.000e-08 Eh
 1-El. energy change                    ....  1.000e-05 Eh
 Orbital Gradient       TolG            ....  1.000e-05
 Orbital Rotation angle TolX            ....  1.000e-05
 DIIS Error             TolErr          ....  5.000e-07


Diagonalization of the overlap matrix:
Smallest eigenvalue                        ... 2.119e-01
Time for diagonalization                   ...    0.000 sec
Threshold for overlap eigenvalues          ... 1.000e-08
Number of eigenvalues below threshold      ... 0
Time for construction of square roots      ...    0.000 sec
Total time needed                          ...    0.000 sec

-------------------
DFT GRID GENERATION
-------------------

General Integration Accuracy     IntAcc      ...  4.340
Radial Grid Type                 RadialGrid  ... Gauss-Chebyshev
Angular Grid (max. acc.)         AngularGrid ... Lebedev-110
Angular grid pruning method      GridPruning ... 3 (G Style)
Weight generation scheme         WeightScheme... Becke
Basis function cutoff            BFCut       ...    1.0000e-11
Integration weight cutoff        WCut        ...    1.0000e-14
Grids for H and He will be reduced by one unit

# of grid points (after initial pruning)     ...   9792 (   0.0 sec)
# of grid points (after weights+screening)   ...   9337 (   0.0 sec)
nearest neighbour list constructed           ...    0.0 sec
Grid point re-assignment to atoms done       ...    0.0 sec
Grid point division into batches done        ...    0.0 sec
Reduced shell lists constructed in    0.0 sec

Total number of grid points                  ...     9337
Total number of batches                      ...      152
Average number of points per batch           ...       61
Average number of grid points per atom       ...     1037
Average number of shells per batch           ...    12.87 (85.80%)
Average number of basis functions per batch  ...    18.66 (88.86%)
Average number of large shells per batch     ...    11.90 (92.48%)
Average number of large basis fcns per batch ...    17.41 (93.27%)
Maximum spatial batch extension              ...  21.52, 21.82, 20.45 au
Average spatial batch extension              ...   4.45,  4.46,  3.94 au

Time for grid setup =    0.054 sec

------------------------------
INITIAL GUESS: MODEL POTENTIAL
------------------------------
Loading Hartree-Fock densities                     ... done
Calculating cut-offs                               ... done
Setting up the integral package                    ... done
Initializing the effective Hamiltonian             ... done
Starting the Coulomb interaction                   ... done (   0.0 sec)
Reading the grid                                   ... done
Mapping shells                                     ... done
Starting the XC term evaluation                    ... done (   0.1 sec)
Transforming the Hamiltonian                       ... done (   0.0 sec)
Diagonalizing the Hamiltonian                      ... done (   0.0 sec)
Back transforming the eigenvectors                 ... done (   0.0 sec)
Now organizing SCF variables                       ... done
                      ------------------
                      INITIAL GUESS DONE (   0.2 sec)
                      ------------------
--------------
SCF ITERATIONS
--------------
ITER       Energy         Delta-E        Max-DP      RMS-DP      [F,P]     Damp
               ***  Starting incremental Fock matrix formation  ***
  0   -152.0491528381   0.000000000000 0.05909113  0.00817573  0.1506124 0.7000
  1   -152.0750926988  -0.025939860702 0.05191763  0.00685472  0.1131668 0.7000
                               ***Turning on DIIS***
  2   -152.0930053636  -0.017912664769 0.12567022  0.01600459  0.0806009 0.0000
  3   -152.0910172742   0.001988089367 0.01924913  0.00202126  0.0077456 0.0000
                      *** Initiating the SOSCF procedure ***
                           *** Shutting down DIIS ***
                      *** Re-Reading the Fockian *** 
                      *** Removing any level shift *** 
ITER      Energy       Delta-E        Grad      Rot      Max-DP    RMS-DP
  4   -152.12859319  -0.0375759116  0.002047  0.002047  0.004607  0.000520
               *** Restarting incremental Fock matrix formation ***
  5   -152.13267012  -0.0040769381  0.000637  0.000638  0.001907  0.000193
  6   -152.13267433  -0.0000042078  0.000179  0.000256  0.000761  0.000079
  7   -152.13267471  -0.0000003809  0.000015  0.000014  0.000036  0.000005
                 **** Energy Check signals convergence ****
              ***Rediagonalizing the Fockian in SOSCF/NRSCF***

               *****************************************************
               *                     SUCCESS                       *
               *           SCF CONVERGED AFTER   8 CYCLES          *
               *****************************************************


----------------
TOTAL SCF ENERGY
----------------

Total Energy       :         -152.13267472 Eh           -4139.74054 eV

Components:
Nuclear Repulsion  :           81.07746871 Eh            2206.23009 eV
Electronic Energy  :         -233.21014342 Eh           -6345.97063 eV
One Electron Energy:         -368.69043976 Eh          -10032.57691 eV
Two Electron Energy:          135.48029634 Eh            3686.60629 eV

Virial components:
Potential Energy   :         -302.97475466 Eh           -8244.36221 eV
Kinetic Energy     :          150.84207995 Eh            4104.62167 eV
Virial Ratio       :            2.00855593


---------------
SCF CONVERGENCE
---------------

  Last Energy change         ...   -2.4805e-09  Tolerance :   1.0000e-08
  Last MAX-Density change    ...    1.2004e-05  Tolerance :   1.0000e-07
  Last RMS-Density change    ...    1.2238e-06  Tolerance :   5.0000e-09
  Last Orbital Gradient      ...    3.3914e-06  Tolerance :   1.0000e-05
  Last Orbital Rotation      ...    4.0383e-06  Tolerance :   1.0000e-05

             **** THE GBW FILE WAS UPDATED (et1.gbw) ****
             **** DENSITY FILE WAS UPDATED (et1.scfp.tmp) ****
             **** ENERGY FILE WAS UPDATED (et1.en.tmp) ****
----------------
ORBITAL ENERGIES
----------------

  NO   OCC          E(Eh)            E(eV) 
   0   2.0000     -20.255226      -551.1727 
   1   2.0000     -11.088935      -301.7453 
   2   2.0000     -11.038292      -300.3672 
   3   2.0000      -1.276344       -34.7311 
   4   2.0000      -0.963185       -26.2096 
   5   2.0000      -0.794441       -21.6179 
   6   2.0000      -0.613626       -16.6976 
   7   2.0000      -0.601407       -16.3651 
   8   2.0000      -0.514221       -13.9927 
   9   2.0000      -0.485930       -13.2228 
  10   2.0000      -0.472067       -12.8456 
  11   2.0000      -0.407996       -11.1021 
  12   2.0000      -0.353252        -9.6125 
  13   0.0000       0.559727        15.2310 
  14   0.0000       0.644737        17.5442 
  15   0.0000       0.645467        17.5641 
  16   0.0000       0.698373        19.0037 
  17   0.0000       0.704798        19.1785 
  18   0.0000       0.762929        20.7604 
  19   0.0000       0.774022        21.0622 
  20   0.0000       0.777933        21.1686 

                    ********************************
                    * MULLIKEN POPULATION ANALYSIS *
                    ********************************

-----------------------
MULLIKEN ATOMIC CHARGES
-----------------------
   0 C :    0.010968
   1 C :   -0.182085
   2 H :    0.061412
   3 H :    0.066914
   4 H :    0.066908
   5 H :    0.046505
   6 H :    0.046505
   7 O :   -0.287879
   8 H :    0.170754
Sum of atomic charges:   -0.0000000

--------------------------------
MULLIKEN REDUCED ORBITAL CHARGES
--------------------------------
  0 C s       :     3.168233  s :     3.168233
      pz      :     1.011725  p :     2.820799
      px      :     0.868938
      py      :     0.940135
  1 C s       :     3.176317  s :     3.176317
      pz      :     1.028788  p :     3.005768
      px      :     0.978691
      py      :     0.998288
  2 H s       :     0.938588  s :     0.938588
  3 H s       :     0.933086  s :     0.933086
  4 H s       :     0.933092  s :     0.933092
  5 H s       :     0.953495  s :     0.953495
  6 H s       :     0.953495  s :     0.953495
  7 O s       :     3.836162  s :     3.836162
      pz      :     1.973911  p :     4.451717
      px      :     1.056587
      py      :     1.421219
  8 H s       :     0.829246  s :     0.829246


                     *******************************
                     * LOEWDIN POPULATION ANALYSIS *
                     *******************************

----------------------
LOEWDIN ATOMIC CHARGES
----------------------
   0 C :    0.055077
   1 C :   -0.092427
   2 H :    0.031277
   3 H :    0.034917
   4 H :    0.034912
   5 H :    0.012622
   6 H :    0.012622
   7 O :   -0.207502
   8 H :    0.118503

-------------------------------
LOEWDIN REDUCED ORBITAL CHARGES
-------------------------------
  0 C s       :     3.028253  s :     3.028253
      pz      :     1.034184  p :     2.916670
      px      :     0.910619
      py      :     0.971867
  1 C s       :     2.999783  s :     2.999783
      pz      :     1.051678  p :     3.092644
      px      :     1.012785
      py      :     1.028181
  2 H s       :     0.968723  s :     0.968723
  3 H s       :     0.965083  s :     0.965083
  4 H s       :     0.965088  s :     0.965088
  5 H s       :     0.987378  s :     0.987378
  6 H s       :     0.987378  s :     0.987378
  7 O s       :     3.712227  s :     3.712227
      pz      :     1.974502  p :     4.495275
      px      :     1.084590
      py      :     1.436183
  8 H s       :     0.881497  s :     0.881497


                      *****************************
                      * MAYER POPULATION ANALYSIS *
                      *****************************

  NA   - Mulliken gross atomic population
  ZA   - Total nuclear charge
  QA   - Mulliken gross atomic charge
  VA   - Mayer's total valence
  BVA  - Mayer's bonded valence
  FA   - Mayer's free valence

  ATOM       NA         ZA         QA         VA         BVA        FA
  0 C      5.9890     6.0000     0.0110     3.9332     3.9332    -0.0000
  1 C      6.1821     6.0000    -0.1821     3.9651     3.9651     0.0000
  2 H      0.9386     1.0000     0.0614     0.9962     0.9962     0.0000
  3 H      0.9331     1.0000     0.0669     0.9955     0.9955    -0.0000
  4 H      0.9331     1.0000     0.0669     0.9955     0.9955    -0.0000
  5 H      0.9535     1.0000     0.0465     0.9978     0.9978    -0.0000
  6 H      0.9535     1.0000     0.0465     0.9978     0.9978    -0.0000
  7 O      8.2879     8.0000    -0.2879     1.9895     1.9895     0.0000
  8 H      0.8292     1.0000     0.1708     0.9708     0.9708     0.0000

  Mayer bond orders larger than 0.1
B(  0-C ,  1-C ) :   0.9971 B(  0-C ,  5-H ) :   0.9657 B(  0-C ,  6-H ) :   0.9657 
B(  0-C ,  7-O ) :   0.9866 B(  1-C ,  2-H ) :   0.9829 B(  1-C ,  3-H ) :   0.9827 
B(  1-C ,  4-H ) :   0.9828 B(  7-O ,  8-H ) :   0.9503 

-------
TIMINGS
-------

Total SCF time: 0 days 0 hours 0 min 1 sec 

Total time                  ....       1.134 sec
Sum of individual times     ....       1.132 sec  ( 99.8%)

Fock matrix formation       ....       0.913 sec  ( 80.5%)
Diagonalization             ....       0.001 sec  (  0.1%)
Density matrix formation    ....       0.000 sec  (  0.0%)
Population analysis         ....       0.000 sec  (  0.0%)
Initial guess               ....       0.128 sec  ( 11.3%)
Orbital Transformation      ....       0.000 sec  (  0.0%)
Orbital Orthonormalization  ....       0.000 sec  (  0.0%)
DIIS solution               ....       0.000 sec  (  0.0%)
SOSCF solution              ....       0.037 sec  (  3.2%)

-------------------------   --------------------
FINAL SINGLE POINT ENERGY      -152.132674715155
-------------------------   --------------------

------------------------------------------------------------------------------
                         ORCA SCF GRADIENT CALCULATION
------------------------------------------------------------------------------

Gradient of the Hartree-Fock SCF energy:
Hartree-Fock type                ... RHF
Number of operators              ...    1
Number of atoms                  ...    9
Basis set dimensions             ...   21
Integral neglect threshold       ... 2.5e-11
Integral primitive cutoff        ... 2.5e-12

Nuclear repulsion gradient       ... done
One Electron Gradient            ... done
Pre-screening matrix             ... done
Starting the two electron gradient:
Two electron gradient done

------------------
CARTESIAN GRADIENT
------------------

   1   C   :   -0.000094122   -0.000023580    0.000000689
   2   C   :    0.000030271   -0.000030050   -0.000002648
   3   H   :    0.000042074   -0.000075432    0.000000825
   4   H   :    0.000038488    0.000015319   -0.000064907
   5   H   :    0.000040717    0.000016027    0.000064839
   6   H   :   -0.000038195    0.000019829   -0.000026454
   7   H   :   -0.000039066    0.000018111    0.000026894
   8   O   :   -0.000169845    0.000227582    0.000002384
   9   H   :    0.000189678   -0.000167805   -0.000001622

Difference to translation invariance:
           :   -0.0000000000   -0.0000000000   -0.0000000000

Norm of the cartesian gradient     ...    0.0004250472
RMS gradient                       ...    0.0000818004
MAX gradient                       ...    0.0002275820

-------
TIMINGS
-------

Total SCF gradient time            ...        0.120 sec

One electron gradient       ....       0.004 sec  (  3.0%)
Prescreening matrices       ....       0.002 sec  (  1.6%)
Two electron gradient       ....       0.052 sec  ( 43.5%)
------------------------------------------------------------------------------
                         ORCA GEOMETRY RELAXATION STEP
------------------------------------------------------------------------------

Reading the OPT-File                    .... done
Getting information on internals        .... done
Copying old internal coords+grads       .... done
Making the new internal coordinates     .... (new redundants).... done
Validating the new internal coordinates .... (new redundants).... done
Calculating the B-matrix                .... done
Calculating the G,G- and P matrices     .... done
Transforming gradient to internals      .... done
Projecting the internal gradient        .... done
Number of atoms                         ....   9
Number of internal coordinates          ....  33
Current Energy                          ....  -152.132674715 Eh
Current gradient norm                   ....     0.000425047 Eh/bohr
Maximum allowed component of the step   ....  0.300
Current trust radius                    ....  0.300
Evaluating the initial hessian          ....  (Almloef) done
Projecting the Hessian                  .... done
Forming the augmented Hessian           .... done
Diagonalizing the augmented Hessian     .... done
Last element of RFO vector              ....  0.999999417
Lowest eigenvalues of augmented Hessian:
 -0.000000380  0.010272597  0.017676925  0.107611689  0.107690940
Length of the computed step             ....  0.001079441
The final length of the internal step   ....  0.001079441
Converting the step to cartesian space:
 Initial RMS(Int)=    0.0001879065
Transforming coordinates:
 Iter   0:  RMS(Cart)=    0.0003044311 RMS(Int)=    0.0001879024
 Iter   1:  RMS(Cart)=    0.0000000300 RMS(Int)=    0.0000000242
done
Storing new coordinates                 .... done

                                .--------------------.
          ----------------------|Geometry convergence|-------------------------
          Item                value                   Tolerance       Converged
          ---------------------------------------------------------------------
          RMS gradient        0.0000649697            0.0001000000      YES
          MAX gradient        0.0002531027            0.0003000000      YES
          RMS step            0.0001879065            0.0020000000      YES
          MAX step            0.0005450035            0.0040000000      YES
          ........................................................
          Max(Bonds)      0.0003      Max(Angles)    0.02
          Max(Dihed)        0.02      Max(Improp)    0.00
          ---------------------------------------------------------------------

                    ***********************HURRAY********************
                    ***        THE OPTIMIZATION HAS CONVERGED     ***
                    *************************************************


    ---------------------------------------------------------------------------
                         Redundant Internal Coordinates

                          --- Optimized Parameters ---  
                            (Angstroem and degrees)

        Definition                    OldVal   dE/dq     Step     FinalVal
    ----------------------------------------------------------------------------
     1. B(C   1,C   0)                1.5418  0.000165 -0.0002    1.5416   
     2. B(H   2,C   1)                1.0858 -0.000003  0.0000    1.0858   
     3. B(H   3,C   1)                1.0855 -0.000062  0.0001    1.0856   
     4. B(H   4,C   1)                1.0855 -0.000063  0.0001    1.0856   
     5. B(H   5,C   0)                1.0974 -0.000011  0.0000    1.0974   
     6. B(H   6,C   0)                1.0974 -0.000013  0.0000    1.0974   
     7. B(O   7,C   0)                1.4355 -0.000049  0.0001    1.4355   
     8. B(H   8,O   7)                0.9908 -0.000253  0.0003    0.9910   
     9. A(C   1,C   0,O   7)          108.43  0.000051   -0.01    108.42   
    10. A(C   1,C   0,H   6)          109.45  0.000028   -0.01    109.44   
    11. A(H   6,C   0,O   7)          111.14 -0.000039    0.01    111.14   
    12. A(H   5,C   0,O   7)          111.14 -0.000040    0.01    111.14   
    13. A(H   5,C   0,H   6)          107.22 -0.000027    0.01    107.23   
    14. A(C   1,C   0,H   5)          109.45  0.000029   -0.01    109.44   
    15. A(H   2,C   1,H   3)          108.75 -0.000068    0.01    108.76   
    16. A(C   0,C   1,H   2)          110.22  0.000107   -0.02    110.20   
    17. A(H   2,C   1,H   4)          108.75 -0.000069    0.01    108.76   
    18. A(C   0,C   1,H   4)          110.29  0.000036   -0.01    110.29   
    19. A(C   0,C   1,H   3)          110.29  0.000034   -0.01    110.28   
    20. A(H   3,C   1,H   4)          108.50 -0.000046    0.01    108.51   
    21. A(C   0,O   7,H   8)          103.95 -0.000012    0.00    103.96   
    22. D(H   3,C   1,C   0,O   7)    -59.90  0.000007   -0.01    -59.90   
    23. D(H   2,C   1,C   0,H   6)     58.63  0.000001   -0.00     58.63   
    24. D(H   3,C   1,C   0,H   5)     61.49  0.000007   -0.01     61.48   
    25. D(H   2,C   1,C   0,H   5)    -58.60  0.000001   -0.01    -58.60   
    26. D(H   2,C   1,C   0,O   7)   -179.98  0.000001   -0.00   -179.99   
    27. D(H   4,C   1,C   0,H   5)   -178.69 -0.000006   -0.00   -178.69   
    28. D(H   4,C   1,C   0,H   6)    -61.45 -0.000006    0.00    -61.45   
    29. D(H   4,C   1,C   0,O   7)     59.93 -0.000006    0.00     59.93   
    30. D(H   3,C   1,C   0,H   6)    178.72  0.000007   -0.00    178.72   
    31. D(H   8,O   7,C   0,H   6)    -59.65  0.000044   -0.02    -59.66   
    32. D(H   8,O   7,C   0,H   5)     59.67 -0.000042    0.01     59.68   
    33. D(H   8,O   7,C   0,C   1)   -179.99  0.000001   -0.00   -179.99   
    ----------------------------------------------------------------------------
                 *******************************************************
                 *** FINAL ENERGY EVALUATION AT THE STATIONARY POINT ***
                 ***               (AFTER    1 CYCLES)               ***
                 *******************************************************
---------------------------------
CARTESIAN COORDINATES (ANGSTROEM)
---------------------------------
  C      0.033131    0.561883   -0.000137
  C      1.239540   -0.397867   -0.000143
  H      2.167303    0.166173   -0.000008
  H      1.216218   -1.031718    0.880892
  H      1.216372   -1.031549   -0.881302
  H      0.082843    1.211070    0.883288
  H      0.082717    1.210929   -0.883671
  O     -1.169751   -0.221589    0.000017
  H     -1.894958    0.453869   -0.000153

----------------------------
CARTESIAN COORDINATES (A.U.)
----------------------------
  NO LB      ZA    FRAG     MASS         X           Y           Z
   0 C     6.0000    0    12.011    0.062609    1.061805   -0.000259
   1 C     6.0000    0    12.011    2.342391   -0.751860   -0.000269
   2 H     1.0000    0     1.008    4.095610    0.314021   -0.000014
   3 H     1.0000    0     1.008    2.298319   -1.949664    1.664645
   4 H     1.0000    0     1.008    2.298611   -1.949346   -1.665420
   5 H     1.0000    0     1.008    0.156551    2.288590    1.669173
   6 H     1.0000    0     1.008    0.156313    2.288324   -1.669897
   7 O     8.0000    0    15.999   -2.210509   -0.418743    0.000032
   8 H     1.0000    0     1.008   -3.580952    0.857688   -0.000290

--------------------------------
INTERNAL COORDINATES (ANGSTROEM)
--------------------------------
 C      0   0   0     0.000000000000     0.00000000     0.00000000
 C      1   0   0     1.541603789414     0.00000000     0.00000000
 H      2   1   0     1.085765065220   110.19845074     0.00000000
 H      2   1   3     1.085602680126   110.28455302   120.08411557
 H      2   1   3     1.085602153624   110.28580785   239.91508748
 H      1   2   3     1.097430843426   109.44085992   301.39525000
 H      1   2   3     1.097430117032   109.44111325    58.63223325
 O      1   2   3     1.435532996231   108.41887913   180.01406296
 H      8   1   2     0.991044602109   103.95681516   180.00984880

---------------------------
INTERNAL COORDINATES (A.U.)
---------------------------
 C      0   0   0     0.000000000000     0.00000000     0.00000000
 C      1   0   0     2.913208969008     0.00000000     0.00000000
 H      2   1   0     2.051798619045   110.19845074     0.00000000
 H      2   1   3     2.051491755689   110.28455302   120.08411557
 H      2   1   3     2.051490760744   110.28580785   239.91508748
 H      1   2   3     2.073843744993   109.44085992   301.39525000
 H      1   2   3     2.073842372308   109.44111325    58.63223325
 O      1   2   3     2.712764219083   108.41887913   180.01406296
 H      8   1   2     1.872802884486   103.95681516   180.00984880

---------------------
BASIS SET INFORMATION
---------------------
There are 3 groups of distinct atoms

 Group   1 Type C   : 6s3p contracted to 2s1p pattern {33/3}
 Group   2 Type H   : 3s contracted to 1s pattern {3}
 Group   3 Type O   : 6s3p contracted to 2s1p pattern {33/3}

Atom   0C    basis set group =>   1
Atom   1C    basis set group =>   1
Atom   2H    basis set group =>   2
Atom   3H    basis set group =>   2
Atom   4H    basis set group =>   2
Atom   5H    basis set group =>   2
Atom   6H    basis set group =>   2
Atom   7O    basis set group =>   3
Atom   8H    basis set group =>   2
------------------------------------------------------------------------------
                           ORCA GTO INTEGRAL CALCULATION
------------------------------------------------------------------------------

                         BASIS SET STATISTICS AND STARTUP INFO

 # of primitive gaussian shells          ...   45
 # of primitive gaussian functions       ...   63
 # of contracted shells                  ...   15
 # of contracted basis functions         ...   21
 Highest angular momentum                ...    1
 Maximum contraction depth               ...    3
 Integral package used                   ... LIBINT
 Integral threshhold            Thresh   ...  2.500e-11
 Primitive cut-off              TCut     ...  2.500e-12


------------------------------ INTEGRAL EVALUATION ----------------------------


 * One electron integrals 
 Pre-screening matrix                    ... done
 Shell pair data                         ... done (   0.000 sec)

-------------------------------------------------------------------------------
                                 ORCA SCF
-------------------------------------------------------------------------------

------------
SCF SETTINGS
------------
Hamiltonian:
 Ab initio Hamiltonian  Method          .... Hartree-Fock(GTOs)


General Settings:
 Integral files         IntName         .... et1
 Hartree-Fock type      HFTyp           .... RHF
 Total Charge           Charge          ....    0
 Multiplicity           Mult            ....    1
 Number of Electrons    NEL             ....   26
 Basis Dimension        Dim             ....   21
 Nuclear Repulsion      ENuc            ....     81.0794422513 Eh

Convergence Acceleration:
 DIIS                   CNVDIIS         .... on
   Start iteration      DIISMaxIt       ....    12
   Startup error        DIISStart       ....  0.200000
   # of expansion vecs  DIISMaxEq       ....     5
   Bias factor          DIISBfac        ....   1.050
   Max. coefficient     DIISMaxC        ....  10.000
 Newton-Raphson         CNVNR           .... off
 SOSCF                  CNVSOSCF        .... on
   Start iteration      SOSCFMaxIt      ....   150
   Startup grad/error   SOSCFStart      ....  0.003300
 Level Shifting         CNVShift        .... on
   Level shift para.    LevelShift      ....    0.2500
   Turn off err/grad.   ShiftErr        ....    0.0010
 Zerner damping         CNVZerner       .... off
 Static damping         CNVDamp         .... on
   Fraction old density DampFac         ....    0.7000
   Max. Damping (<1)    DampMax         ....    0.9800
   Min. Damping (>=0)   DampMin         ....    0.0000
   Turn off err/grad.   DampErr         ....    0.1000
 Fernandez-Rico         CNVRico         .... off

SCF Procedure:
 Maximum # iterations   MaxIter         ....   125
 SCF integral mode      SCFMode         .... Direct
   Integral package                     .... LIBINT
 Reset frequeny         DirectResetFreq ....    20
 Integral Threshold     Thresh          ....  2.500e-11 Eh
 Primitive CutOff       TCut            ....  2.500e-12 Eh

Convergence Tolerance:
 Convergence Check Mode ConvCheckMode   .... Total+1el-Energy
 Convergence forced     ConvForced      .... 0
 Energy Change          TolE            ....  1.000e-08 Eh
 1-El. energy change                    ....  1.000e-05 Eh
 Orbital Gradient       TolG            ....  1.000e-05
 Orbital Rotation angle TolX            ....  1.000e-05
 DIIS Error             TolErr          ....  5.000e-07


Diagonalization of the overlap matrix:
Smallest eigenvalue                        ... 2.119e-01
Time for diagonalization                   ...    0.000 sec
Threshold for overlap eigenvalues          ... 1.000e-08
Number of eigenvalues below threshold      ... 0
Time for construction of square roots      ...    0.000 sec
Total time needed                          ...    0.000 sec

---------------------
INITIAL GUESS: MOREAD
---------------------
Guess MOs are being read from file: et1.gbw
Input Geometry matches current geometry (good)
Input basis set matches current basis set (good)
MOs were renormalized
MOs were reorthogonalized (Cholesky)
                      ------------------
                      INITIAL GUESS DONE (   0.0 sec)
                      ------------------
--------------
SCF ITERATIONS
--------------
ITER       Energy         Delta-E        Max-DP      RMS-DP      [F,P]     Damp
               ***  Starting incremental Fock matrix formation  ***
                      *** Initiating the SOSCF procedure ***
                      *** Re-Reading the Fockian *** 
                      *** Removing any level shift *** 
ITER      Energy       Delta-E        Grad      Rot      Max-DP    RMS-DP
  0   -152.13267486 -152.1326748556  0.000040  0.000040  0.000084  0.000010
               *** Restarting incremental Fock matrix formation ***
  1   -152.13267487  -0.0000000165  0.000015  0.000016  0.000036  0.000005
                 **** Energy Check signals convergence ****
              ***Rediagonalizing the Fockian in SOSCF/NRSCF***

               *****************************************************
               *                     SUCCESS                       *
               *           SCF CONVERGED AFTER   2 CYCLES          *
               *****************************************************


----------------
TOTAL SCF ENERGY
----------------

Total Energy       :         -152.13267488 Eh           -4139.74054 eV

Components:
Nuclear Repulsion  :           81.07944225 Eh            2206.28379 eV
Electronic Energy  :         -233.21211713 Eh           -6346.02433 eV
One Electron Energy:         -368.69480475 Eh          -10032.69569 eV
Two Electron Energy:          135.48268762 Eh            3686.67136 eV

Virial components:
Potential Energy   :         -302.97457165 Eh           -8244.35723 eV
Kinetic Energy     :          150.84189677 Eh            4104.61669 eV
Virial Ratio       :            2.00855716


---------------
SCF CONVERGENCE
---------------

  Last Energy change         ...   -3.0466e-09  Tolerance :   1.0000e-08
  Last MAX-Density change    ...    2.3073e-05  Tolerance :   1.0000e-07
  Last RMS-Density change    ...    2.9802e-06  Tolerance :   5.0000e-09
  Last Orbital Gradient      ...    6.1410e-06  Tolerance :   1.0000e-05
  Last Orbital Rotation      ...    1.0176e-05  Tolerance :   1.0000e-05

             **** THE GBW FILE WAS UPDATED (et1.gbw) ****
             **** DENSITY FILE WAS UPDATED (et1.scfp.tmp) ****
             **** ENERGY FILE WAS UPDATED (et1.en.tmp) ****
----------------
ORBITAL ENERGIES
----------------

  NO   OCC          E(Eh)            E(eV) 
   0   2.0000     -20.255245      -551.1732 
   1   2.0000     -11.088910      -301.7446 
   2   2.0000     -11.038293      -300.3672 
   3   2.0000      -1.276266       -34.7290 
   4   2.0000      -0.963226       -26.2107 
   5   2.0000      -0.794373       -21.6160 
   6   2.0000      -0.613589       -16.6966 
   7   2.0000      -0.601435       -16.3659 
   8   2.0000      -0.514216       -13.9925 
   9   2.0000      -0.485891       -13.2218 
  10   2.0000      -0.472022       -12.8444 
  11   2.0000      -0.407989       -11.1020 
  12   2.0000      -0.353258        -9.6126 
  13   0.0000       0.559620        15.2280 
  14   0.0000       0.644712        17.5435 
  15   0.0000       0.645449        17.5636 
  16   0.0000       0.698340        19.0028 
  17   0.0000       0.704749        19.1772 
  18   0.0000       0.762859        20.7584 
  19   0.0000       0.774014        21.0620 
  20   0.0000       0.777932        21.1686 

                    ********************************
                    * MULLIKEN POPULATION ANALYSIS *
                    ********************************

-----------------------
MULLIKEN ATOMIC CHARGES
-----------------------
   0 C :    0.010939
   1 C :   -0.182035
   2 H :    0.061403
   3 H :    0.066898
   4 H :    0.066893
   5 H :    0.046510
   6 H :    0.046509
   7 O :   -0.287741
   8 H :    0.170624
Sum of atomic charges:   -0.0000000

--------------------------------
MULLIKEN REDUCED ORBITAL CHARGES
--------------------------------
  0 C s       :     3.168213  s :     3.168213
      pz      :     1.011714  p :     2.820848
      px      :     0.868966
      py      :     0.940167
  1 C s       :     3.176299  s :     3.176299
      pz      :     1.028750  p :     3.005735
      px      :     0.978715
      py      :     0.998270
  2 H s       :     0.938597  s :     0.938597
  3 H s       :     0.933102  s :     0.933102
  4 H s       :     0.933107  s :     0.933107
  5 H s       :     0.953490  s :     0.953490
  6 H s       :     0.953491  s :     0.953491
  7 O s       :     3.836223  s :     3.836223
      pz      :     1.973911  p :     4.451519
      px      :     1.056541
      py      :     1.421066
  8 H s       :     0.829376  s :     0.829376


                     *******************************
                     * LOEWDIN POPULATION ANALYSIS *
                     *******************************

----------------------
LOEWDIN ATOMIC CHARGES
----------------------
   0 C :    0.055053
   1 C :   -0.092392
   2 H :    0.031270
   3 H :    0.034908
   4 H :    0.034904
   5 H :    0.012628
   6 H :    0.012628
   7 O :   -0.207425
   8 H :    0.118426

-------------------------------
LOEWDIN REDUCED ORBITAL CHARGES
-------------------------------
  0 C s       :     3.028225  s :     3.028225
      pz      :     1.034166  p :     2.916722
      px      :     0.910649
      py      :     0.971907
  1 C s       :     2.999774  s :     2.999774
      pz      :     1.051630  p :     3.092618
      px      :     1.012822
      py      :     1.028166
  2 H s       :     0.968730  s :     0.968730
  3 H s       :     0.965092  s :     0.965092
  4 H s       :     0.965096  s :     0.965096
  5 H s       :     0.987372  s :     0.987372
  6 H s       :     0.987372  s :     0.987372
  7 O s       :     3.712367  s :     3.712367
      pz      :     1.974503  p :     4.495058
      px      :     1.084531
      py      :     1.436025
  8 H s       :     0.881574  s :     0.881574


                      *****************************
                      * MAYER POPULATION ANALYSIS *
                      *****************************

  NA   - Mulliken gross atomic population
  ZA   - Total nuclear charge
  QA   - Mulliken gross atomic charge
  VA   - Mayer's total valence
  BVA  - Mayer's bonded valence
  FA   - Mayer's free valence

  ATOM       NA         ZA         QA         VA         BVA        FA
  0 C      5.9891     6.0000     0.0109     3.9332     3.9332     0.0000
  1 C      6.1820     6.0000    -0.1820     3.9651     3.9651     0.0000
  2 H      0.9386     1.0000     0.0614     0.9962     0.9962    -0.0000
  3 H      0.9331     1.0000     0.0669     0.9955     0.9955    -0.0000
  4 H      0.9331     1.0000     0.0669     0.9955     0.9955     0.0000
  5 H      0.9535     1.0000     0.0465     0.9978     0.9978     0.0000
  6 H      0.9535     1.0000     0.0465     0.9978     0.9978    -0.0000
  7 O      8.2877     8.0000    -0.2877     1.9896     1.9896     0.0000
  8 H      0.8294     1.0000     0.1706     0.9709     0.9709    -0.0000

  Mayer bond orders larger than 0.1
B(  0-C ,  1-C ) :   0.9971 B(  0-C ,  5-H ) :   0.9657 B(  0-C ,  6-H ) :   0.9657 
B(  0-C ,  7-O ) :   0.9866 B(  1-C ,  2-H ) :   0.9829 B(  1-C ,  3-H ) :   0.9827 
B(  1-C ,  4-H ) :   0.9827 B(  7-O ,  8-H ) :   0.9503 

-------
TIMINGS
-------

Total SCF time: 0 days 0 hours 0 min 0 sec 

Total time                  ....       0.285 sec
Sum of individual times     ....       0.283 sec  ( 99.4%)

Fock matrix formation       ....       0.271 sec  ( 95.1%)
Diagonalization             ....       0.000 sec  (  0.0%)
Density matrix formation    ....       0.000 sec  (  0.0%)
Population analysis         ....       0.000 sec  (  0.1%)
Initial guess               ....       0.011 sec  (  3.9%)
Orbital Transformation      ....       0.000 sec  (  0.0%)
Orbital Orthonormalization  ....       0.011 sec  (  3.9%)
DIIS solution               ....       0.000 sec  (  0.0%)
SOSCF solution              ....       0.001 sec  (  0.3%)

-------------------------   --------------------
FINAL SINGLE POINT ENERGY      -152.132674875156
-------------------------   --------------------

                                *** OPTIMIZATION RUN DONE ***

                            ***************************************
                            *     ORCA property calculations      *
                            ***************************************

                                    ---------------------
                                    Active property flags
                                    ---------------------
   (+) Dipole Moment


------------------------------------------------------------------------------
                       ORCA ELECTRIC PROPERTIES CALCULATION
------------------------------------------------------------------------------

Dipole Moment Calculation                       ... on
Quadrupole Moment Calculation                   ... off
Polarizability Calculation                      ... off
GBWName                                         ... et1.gbw
Electron density file                           ... et1.scfp.tmp
The origin for moment calculation is the CENTER OF MASS  = (-0.021959, -0.024145 -0.000166)

-------------
DIPOLE MOMENT
-------------
                                X             Y             Z
Electronic contribution:     -2.68777      -0.42451       0.00026
Nuclear contribution   :      2.74132       0.98709      -0.00040
                        -----------------------------------------
Total Dipole Moment    :      0.05355       0.56258      -0.00014
                        -----------------------------------------
Magnitude (a.u.)       :      0.56513
Magnitude (Debye)      :      1.43644


-------------------------------------------------------------------------------
                               ORCA SCF HESSIAN
-------------------------------------------------------------------------------

Hessian of the Hartree-Fock SCF energy:
Hartree-Fock type                                ... RHF
Number of operators                              ...    1
Number of atoms                                  ...    9
Basis set dimensions                             ...   21
Integral neglect threshold                       ... 2.5e-11
Integral primitive cutoff                        ... 2.5e-12

Nuclear repulsion Hessian                        ... done   (      0.0 sec)

----------------------------------------------
Forming right-hand sides of CP-SCF equations     ...
----------------------------------------------
One electron integral derivatives                ... done   (      0.1 sec)
Transforming the overlap derivative matrices     ... done   (      0.0 sec)
Making the Q(x) pseudodensities                  ... done   (      0.0 sec)
Adding the E*S(x)*S(y) terms to the Hessian      ... done   (      0.0 sec)
Calculating energy weighted overlap derivatives  ... done   (      0.0 sec)
Two electron integral derivatives                ... done   (      0.1 sec)
tr(F(y)Q(x)) contribution to the Hessian         ... done   (      0.0 sec)
Response fock operator R(S(x))                   ... done   (      0.1 sec)
tr(F(y)S(x)) contribution to the Hessian         ... done   (      0.0 sec)
Transforming and finalizing RHSs                 ... done   (      0.0 sec)

----------------------------------------------
Solving the CP-SCF equations                     ...
----------------------------------------------
     CP-SCF ITERATION   0: 
     CP-SCF ITERATION   1:      0.000157600580
     CP-SCF ITERATION   2:      0.000008291343
     CP-SCF ITERATION   3:      0.000000134549
     CP-SCF ITERATION   4:      0.000000008057

                                                 ... done   (      0.5 sec)
Forming perturbed density Hessian contributions  ... done   (      0.0 sec)
Making the perturbed densities                   ... done   (      0.0 sec)
2nd integral derivative contribs                 ... done   (      0.4 sec)
Dipol derivatives                                ... done   (      0.1 sec)

Total SCF Hessian time: 0 days 0 hours 0 min 1 sec 

Writing the Hessian file to the disk             ... done


-----------------------
VIBRATIONAL FREQUENCIES
-----------------------

   0:         0.00 cm**-1
   1:         0.00 cm**-1
   2:         0.00 cm**-1
   3:         0.00 cm**-1
   4:         0.00 cm**-1
   5:         0.00 cm**-1
   6:       225.00 cm**-1
   7:       357.54 cm**-1
   8:       438.43 cm**-1
   9:       951.98 cm**-1
  10:      1076.42 cm**-1
  11:      1227.31 cm**-1
  12:      1345.17 cm**-1
  13:      1350.74 cm**-1
  14:      1510.80 cm**-1
  15:      1574.61 cm**-1
  16:      1708.90 cm**-1
  17:      1790.08 cm**-1
  18:      1819.73 cm**-1
  19:      1826.27 cm**-1
  20:      1850.73 cm**-1
  21:      3539.09 cm**-1
  22:      3573.53 cm**-1
  23:      3650.14 cm**-1
  24:      3758.08 cm**-1
  25:      3760.27 cm**-1
  26:      4226.18 cm**-1


------------
NORMAL MODES
------------

These modes are the cartesian displacements weighted by the diagonal matrix
M(i,i)=1/sqrt(m[i]) where m[i] is the mass of the displaced atom
Thus, these vectors are normalized but *not* orthogonal

                  0          1          2          3          4          5    
      0       0.000000   0.000000   0.000000   0.000000   0.000000   0.000000
      1       0.000000   0.000000   0.000000   0.000000   0.000000   0.000000
      2       0.000000   0.000000   0.000000   0.000000   0.000000   0.000000
      3       0.000000   0.000000   0.000000   0.000000   0.000000   0.000000
      4       0.000000   0.000000   0.000000   0.000000   0.000000   0.000000
      5       0.000000   0.000000   0.000000   0.000000   0.000000   0.000000
      6       0.000000   0.000000   0.000000   0.000000   0.000000   0.000000
      7       0.000000   0.000000   0.000000   0.000000   0.000000   0.000000
      8       0.000000   0.000000   0.000000   0.000000   0.000000   0.000000
      9       0.000000   0.000000   0.000000   0.000000   0.000000   0.000000
     10       0.000000   0.000000   0.000000   0.000000   0.000000   0.000000
     11       0.000000   0.000000   0.000000   0.000000   0.000000   0.000000
     12       0.000000   0.000000   0.000000   0.000000   0.000000   0.000000
     13       0.000000   0.000000   0.000000   0.000000   0.000000   0.000000
     14       0.000000   0.000000   0.000000   0.000000   0.000000   0.000000
     15       0.000000   0.000000   0.000000   0.000000   0.000000   0.000000
     16       0.000000   0.000000   0.000000   0.000000   0.000000   0.000000
     17       0.000000   0.000000   0.000000   0.000000   0.000000   0.000000
     18       0.000000   0.000000   0.000000   0.000000   0.000000   0.000000
     19       0.000000   0.000000   0.000000   0.000000   0.000000   0.000000
     20       0.000000   0.000000   0.000000   0.000000   0.000000   0.000000
     21       0.000000   0.000000   0.000000   0.000000   0.000000   0.000000
     22       0.000000   0.000000   0.000000   0.000000   0.000000   0.000000
     23       0.000000   0.000000   0.000000   0.000000   0.000000   0.000000
     24       0.000000   0.000000   0.000000   0.000000   0.000000   0.000000
     25       0.000000   0.000000   0.000000   0.000000   0.000000   0.000000
     26       0.000000   0.000000   0.000000   0.000000   0.000000   0.000000
                  6          7          8          9         10         11    
      0       0.000006  -0.000005   0.005419   0.000000  -0.018974  -0.135242
      1       0.000000   0.000001   0.199890   0.000008   0.152233   0.129285
      2       0.069933  -0.041699  -0.000009   0.073878  -0.000009  -0.000009
      3      -0.000002  -0.000006  -0.217699   0.000001   0.203634   0.031534
      4       0.000002   0.000002  -0.032112  -0.000002  -0.037277  -0.179940
      5       0.000287   0.029802   0.000017   0.041967  -0.000006   0.000013
      6       0.000042  -0.000014   0.002598   0.000069   0.558661  -0.248545
      7       0.000069   0.000003  -0.401061  -0.000061  -0.603311   0.295369
      8      -0.582000   0.084246   0.000009  -0.180537   0.000001  -0.000039
      9       0.348973  -0.059156  -0.491968   0.314293  -0.139612   0.493715
     10       0.336667   0.012918  -0.032811  -0.308782  -0.095671  -0.167459
     11       0.251126   0.037745  -0.008098  -0.173194  -0.041094   0.032589
     12      -0.349017   0.059151  -0.491891  -0.314367  -0.139516   0.493570
     13      -0.336708  -0.012914  -0.032928   0.308803  -0.095835  -0.167302
     14       0.251000   0.037752   0.008167  -0.173175   0.041122  -0.032587
     15      -0.027491  -0.011228  -0.041522  -0.174908  -0.201690  -0.041300
     16      -0.086496   0.008774   0.186495   0.416789   0.174642   0.140351
     17       0.134650  -0.051314   0.012297  -0.224943   0.000198   0.002856
     18       0.027531   0.011206  -0.041528   0.174856  -0.201732  -0.041234
     19       0.086504  -0.008773   0.186500  -0.416811   0.174637   0.140433
     20       0.134630  -0.051317  -0.012301  -0.224897  -0.000200  -0.002825
     21      -0.000006   0.000012   0.227405   0.000001  -0.120074   0.054406
     22      -0.000006  -0.000017  -0.097357  -0.000002  -0.052532   0.043595
     23      -0.067902  -0.056757  -0.000008  -0.027728   0.000006  -0.000007
     24       0.000007  -0.000014  -0.015596   0.000017  -0.170641  -0.283983
     25       0.000037   0.000221  -0.360143   0.000031  -0.090446  -0.329747
     26       0.051611   0.985495  -0.000037   0.036482   0.000038   0.000067
                 12         13         14         15         16         17    
      0       0.000271  -0.170784   0.000001  -0.114696   0.054702  -0.159650
      1       0.000162  -0.115926  -0.000003  -0.082714  -0.014003   0.048473
      2      -0.152481  -0.000330  -0.052379   0.000029   0.000004  -0.000001
      3      -0.000085   0.057176   0.000001   0.047922   0.097467   0.087711
      4       0.000019  -0.001864   0.000008   0.062498  -0.082223  -0.034603
      5       0.084597   0.000193   0.097998  -0.000011   0.000003   0.000008
      6      -0.000188   0.174304   0.000048   0.190945  -0.252468  -0.092263
      7       0.000247  -0.192505  -0.000019  -0.169602   0.490575   0.264332
      8      -0.165695  -0.000368  -0.116213   0.000038  -0.000007  -0.000046
      9       0.231403  -0.084260   0.210014  -0.163271  -0.431023  -0.251691
     10      -0.241115  -0.048539  -0.230355  -0.012864   0.192677  -0.065679
     11      -0.082929  -0.032434  -0.055526  -0.062696   0.182237  -0.026124
     12      -0.231294  -0.085289  -0.210066  -0.163219  -0.430947  -0.251602
     13       0.241311  -0.047506   0.230375  -0.012967   0.192726  -0.065664
     14      -0.083002   0.032066  -0.055496   0.062686  -0.182280   0.026057
     15      -0.424718  -0.579920   0.607670   0.386783  -0.185891   0.405241
     16      -0.385081  -0.079828  -0.130990  -0.158976   0.031579   0.084331
     17       0.146613   0.000401   0.008461   0.022567  -0.018557  -0.052878
     18       0.426601  -0.578078  -0.607612   0.386772  -0.185907   0.405262
     19       0.385334  -0.078049   0.130984  -0.159043   0.031553   0.084367
     20       0.146492   0.000371   0.008524  -0.022612   0.018573   0.052809
     21      -0.000221   0.138772  -0.000003   0.040147  -0.006803   0.011720
     22      -0.000153   0.101051  -0.000002   0.079552   0.026208  -0.056773
     23       0.052884   0.000104  -0.019904  -0.000020  -0.000006   0.000012
     24      -0.000519   0.304367  -0.000020  -0.479561  -0.218980   0.456220
     25      -0.000432   0.246090  -0.000021  -0.508314  -0.208479   0.434142
     26       0.008027  -0.000049  -0.017426   0.000118   0.000048  -0.000099
                 18         19         20         21         22         23    
      0       0.000005  -0.042737  -0.021096   0.003600  -0.002221   0.000007
      1       0.000004   0.045773  -0.086631   0.071143   0.004380   0.000005
      2       0.013614  -0.000006   0.000008  -0.000003  -0.000000   0.096198
      3      -0.000013  -0.007581  -0.019396  -0.000927   0.042249   0.000000
      4      -0.000001  -0.053809  -0.017960  -0.002465  -0.032488   0.000000
      5       0.057675  -0.000009   0.000001  -0.000000   0.000001  -0.005987
      6       0.000083   0.102531   0.085135   0.025934  -0.498660   0.000002
      7       0.000029  -0.221333  -0.188643   0.020179  -0.306614   0.000002
      8      -0.729123   0.000034  -0.000064   0.000003  -0.000074  -0.002337
      9      -0.461294   0.098122   0.082440   0.002883   0.015711  -0.005805
     10      -0.127662   0.444528   0.250395  -0.010277   0.331944  -0.021187
     11      -0.052523   0.358054   0.194916   0.008243  -0.465145   0.032505
     12       0.461367   0.098112   0.082541   0.002884   0.015631   0.005800
     13       0.127688   0.444587   0.250445  -0.010274   0.331850   0.021183
     14      -0.052428  -0.357949  -0.194858  -0.008243   0.465205   0.032511
     15      -0.007476   0.072612   0.076374  -0.034831  -0.002873  -0.029629
     16       0.022106  -0.268131   0.452164  -0.409640  -0.010751  -0.414424
     17       0.002358   0.217343  -0.395225  -0.572409  -0.017819  -0.566703
     18       0.007444   0.072578   0.076422  -0.034748  -0.002870   0.029549
     19      -0.022225  -0.268153   0.452230  -0.409527  -0.010746   0.414356
     20       0.002268  -0.217313   0.395145   0.572450   0.017819  -0.566804
     21      -0.000000   0.004494   0.005596   0.001010  -0.000221  -0.000000
     22       0.000003  -0.007445   0.003159  -0.000508  -0.000096   0.000001
     23      -0.001196   0.000002  -0.000001   0.000000   0.000000  -0.000000
     24      -0.000020   0.084288  -0.009250  -0.010009  -0.000397   0.000002
     25      -0.000019   0.082424  -0.020450   0.009249   0.000768  -0.000005
     26      -0.001021  -0.000019   0.000004  -0.000001  -0.000000  -0.004092
                  24         25         26    
      0      -0.000005   0.000001  -0.002826
      1      -0.001152   0.000001  -0.004710
      2       0.000002   0.004809   0.000001
      3      -0.059335   0.000021  -0.000201
      4      -0.075544   0.000029   0.000235
      5       0.000036   0.095917   0.000000
      6       0.686592  -0.000345   0.002164
      7       0.420929  -0.000211   0.000518
      8       0.000103   0.004687  -0.000000
      9       0.007903   0.018641  -0.000855
     10       0.237897   0.409957   0.000841
     11      -0.338459  -0.570137  -0.000727
     12       0.007827  -0.018552  -0.000855
     13       0.237416  -0.410092   0.000839
     14       0.337929  -0.570567   0.000725
     15      -0.000937   0.002762  -0.002748
     16       0.009387  -0.024710   0.004596
     17       0.008820  -0.031498   0.006152
     18      -0.000941  -0.002767  -0.002750
     19       0.009406   0.024696   0.004599
     20      -0.008849  -0.031494  -0.006156
     21       0.000210  -0.000000   0.049110
     22      -0.000024   0.000000  -0.039654
     23      -0.000000  -0.000064   0.000010
     24       0.003307  -0.000000  -0.738361
     25      -0.000764  -0.000001   0.671317
     26      -0.000000  -0.000196  -0.000172


-----------
IR SPECTRUM
-----------

 Mode    freq (cm**-1)   T**2         TX         TY         TZ
-------------------------------------------------------------------
   6:       225.00    2.277040  (  0.000233   0.000485   1.508986)
   7:       357.54   79.238845  ( -0.000243   0.001295   8.901620)
   8:       438.43    6.141528  ( -2.432437  -0.474106  -0.000145)
   9:       951.98    0.000019  (  0.000194   0.000084   0.004398)
  10:      1076.42    0.236633  (  0.059881  -0.482750   0.000443)
  11:      1227.31    7.196459  ( -2.681185  -0.087776  -0.000191)
  12:      1345.17   10.816087  (  0.000245   0.001535  -3.288782)
  13:      1350.74    1.558082  ( -0.343130  -1.200126  -0.006421)
  14:      1510.80    0.225906  ( -0.000278  -0.000129   0.475296)
  15:      1574.61   41.753548  ( -6.130305  -2.042770   0.000647)
  16:      1708.90    2.514327  (  0.750501  -1.396809   0.000063)
  17:      1790.08    8.725791  ( -2.314474   1.835484  -0.000344)
  18:      1819.73    1.034811  (  0.000008   0.000224  -1.017257)
  19:      1826.27    3.519342  (  0.588915   1.781157   0.000288)
  20:      1850.73    1.180711  ( -1.078582  -0.131800   0.000036)
  21:      3539.09    9.650778  (  1.065532   2.918119  -0.000017)
  22:      3573.53    0.606645  (  0.693883  -0.353795  -0.000078)
  23:      3650.14   14.352135  (  0.000190   0.000355   3.788421)
  24:      3758.08    0.816816  ( -0.611545  -0.665454   0.000234)
  25:      3760.27    0.908193  (  0.000167   0.000538   0.952991)
  26:      4226.18   26.905539  (  3.330253  -3.976802   0.000814)

The first frequency considered to be a vibration is 6
The total number of vibrations considered is 21


--------------------------
THERMOCHEMISTRY AT 298.15K
--------------------------

Temperature         ... 298.15 K
Pressure            ... 1.00 atm
Total Mass          ... 46.07 AMU

Throughout the following assumptions are being made:
  (1) The electronic state is orbitally nondegenerate
  (2) There are no thermally accessible electronically excited states
  (3) Hindered rotations indicated by low frequency modes are not
      treated as such but are treated as vibrations and this may
      cause some error
  (4) All equations used are the standard statistical mechanics
      equations for an ideal gas
  (5) All vibrations are strictly harmonic

freq.     225.00  E(vib)   ...       0.33 
freq.     357.54  E(vib)   ...       0.22 
freq.     438.43  E(vib)   ...       0.17 
freq.     951.98  E(vib)   ...       0.03 
freq.    1076.42  E(vib)   ...       0.02 
freq.    1227.31  E(vib)   ...       0.01 
freq.    1345.17  E(vib)   ...       0.01 
freq.    1350.74  E(vib)   ...       0.01 
freq.    1510.80  E(vib)   ...       0.00 
freq.    1574.61  E(vib)   ...       0.00 
freq.    1708.90  E(vib)   ...       0.00 
freq.    1790.08  E(vib)   ...       0.00 
freq.    1819.73  E(vib)   ...       0.00 
freq.    1826.27  E(vib)   ...       0.00 
freq.    1850.73  E(vib)   ...       0.00 
freq.    3539.09  E(vib)   ...       0.00 
freq.    3573.53  E(vib)   ...       0.00 
freq.    3650.14  E(vib)   ...       0.00 
freq.    3758.08  E(vib)   ...       0.00 
freq.    3760.27  E(vib)   ...       0.00 
freq.    4226.18  E(vib)   ...       0.00 

------------
INNER ENERGY
------------

The inner energy is: U= E(el) + E(ZPE) + E(vib) + E(rot) + E(trans)
    E(el)   - is the total energy from the electronic structure calculation
              = E(kin-el) + E(nuc-el) + E(el-el) + E(nuc-nuc)
    E(ZPE)  - the the zero temperature vibrational energy from the frequency calculation
    E(vib)  - the the finite temperature correction to E(ZPE) due to population
              of excited vibrational states
    E(rot)  - is the rotational thermal energy
    E(trans)- is the translational thermal energy

Summary of contributions to the inner energy U:
Electronic energy                ...   -152.13267488 Eh
Zero point energy                ...      0.09468291 Eh      59.41 kcal/mol
Thermal vibrational correction   ...      0.00127000 Eh       0.80 kcal/mol
Thermal rotational correction    ...      0.00141627 Eh       0.89 kcal/mol
Thermal translational correction ...      0.00141627 Eh       0.89 kcal/mol
-----------------------------------------------------------------------
Total thermal energy                   -152.03388942 Eh


Summary of corrections to the electronic energy:
(perhaps to be used in another calculation)
Total thermal correction                  0.00410255 Eh       2.57 kcal/mol
Non-thermal (ZPE) correction              0.09468291 Eh      59.41 kcal/mol
-----------------------------------------------------------------------
Total correction                          0.09878546 Eh      61.99 kcal/mol


--------
ENTHALPY
--------

The enthalpy is H = U + kB*T
                kB is Boltzmann's constant
Total free energy                 ...   -152.03388942 Eh 
Thermal Enthalpy correction       ...      0.00094421 Eh       0.59 kcal/mol
-----------------------------------------------------------------------
Total Enthalpy                    ...   -152.03294521 Eh


Vibrational entropy computed according to the QRRHO of S. Grimme
Chem.Eur.J. 2012 18 9955


-------
ENTROPY
-------

The entropy contributions are T*S = T*(S(el)+S(vib)+S(rot)+S(trans)
     S(el)   - electronic entropy
     S(vib)  - vibrational entropy
     S(rot)  - rotational entropy
     S(trans)- translational entropy
The entropies will be listed as mutliplied by the temperature to get
units of energy

Electronic entropy                ...      0.00000000 Eh      0.00 kcal/mol
Vibrational entropy               ...      0.00199201 Eh      1.25 kcal/mol
Rotational entropy                ...      0.00958862 Eh      6.02 kcal/mol
Translational entropy             ...      0.01777359 Eh     11.15 kcal/mol
-----------------------------------------------------------------------
Final entropy term                ...      0.02935421 Eh     18.42 kcal/mol


CAUTION: The rotational entropy is not quite correctly treated here
         because it includes a symmetry number that is not yet correctly
         implemented in ORCA!
For a nonlinear molecule the correct rotational entropy is:
    S(rot) = R*(ln(qrot/sn)+1.5)
    R    = 8.31441 J/mol/K = 1.987191683e-3 kcal/mol/K
    qrot = 17224.6768056
    sn is the rotational symmetry number. We have assumed 3 here
       if it is different for your molecule then you should correct
       the printed rotational entropy by manually evaluating the equation
       as given above

For convenience we print out the resulting values for sn=1 - 12:
 sn= 1  qrot/sn=   17224.6768 T*S(rot)=     6.67 kcal/mol T*S(tot)=    19.07 kcal/mol
 sn= 2  qrot/sn=    8612.3384 T*S(rot)=     6.26 kcal/mol T*S(tot)=    18.66 kcal/mol
 sn= 3  qrot/sn=    5741.5589 T*S(rot)=     6.02 kcal/mol T*S(tot)=    18.42 kcal/mol
 sn= 4  qrot/sn=    4306.1692 T*S(rot)=     5.85 kcal/mol T*S(tot)=    18.25 kcal/mol
 sn= 5  qrot/sn=    3444.9354 T*S(rot)=     5.71 kcal/mol T*S(tot)=    18.12 kcal/mol
 sn= 6  qrot/sn=    2870.7795 T*S(rot)=     5.61 kcal/mol T*S(tot)=    18.01 kcal/mol
 sn= 7  qrot/sn=    2460.6681 T*S(rot)=     5.51 kcal/mol T*S(tot)=    17.92 kcal/mol
 sn= 8  qrot/sn=    2153.0846 T*S(rot)=     5.44 kcal/mol T*S(tot)=    17.84 kcal/mol
 sn= 9  qrot/sn=    1913.8530 T*S(rot)=     5.37 kcal/mol T*S(tot)=    17.77 kcal/mol
 sn=10  qrot/sn=    1722.4677 T*S(rot)=     5.30 kcal/mol T*S(tot)=    17.71 kcal/mol
 sn=11  qrot/sn=    1565.8797 T*S(rot)=     5.25 kcal/mol T*S(tot)=    17.65 kcal/mol
 sn=12  qrot/sn=    1435.3897 T*S(rot)=     5.20 kcal/mol T*S(tot)=    17.60 kcal/mol


-------------------
GIBBS FREE ENTHALPY
-------------------

The Gibbs free enthalpy is G = H - T*S

Total enthalpy                    ...   -152.03294521 Eh 
Total entropy correction          ...     -0.02935421 Eh    -18.42 kcal/mol
-----------------------------------------------------------------------
Final Gibbs free enthalpy         ...   -152.06229942 Eh

For completeness - the Gibbs free enthalpy minus the electronic energy
G-E(el)                           ...      0.07037546 Eh     44.16 kcal/mol


Timings for individual modules:

Sum of individual times         ...        3.155 sec (=   0.053 min)
GTO integral calculation        ...        0.288 sec (=   0.005 min)   9.1 %
SCF iterations                  ...        1.433 sec (=   0.024 min)  45.4 %
SCF Gradient evaluation         ...        0.128 sec (=   0.002 min)   4.1 %
Geometry relaxation             ...        0.031 sec (=   0.001 min)   1.0 %
Analytical frequency calculation...        1.274 sec (=   0.021 min)  40.4 %
                             ****ORCA TERMINATED NORMALLY****
TOTAL RUN TIME: 0 days 0 hours 0 minutes 3 seconds 280 msec
