 Entering Gaussian System, Link 0=/home/programs/G09_64/g09/g09
 Initial command:
 /home/programs/G09_64/g09/l1.exe /scratch/Gau-7010.inp -scrdir=/scratch/
 Entering Link 1 = /home/programs/G09_64/g09/l1.exe PID=      7012.
  
 Copyright (c) 1988,1990,1992,1993,1995,1998,2003,2009,2010,
            Gaussian, Inc.  All Rights Reserved.
  
 This is part of the Gaussian(R) 09 program.  It is based on
 the Gaussian(R) 03 system (copyright 2003, Gaussian, Inc.),
 the Gaussian(R) 98 system (copyright 1998, Gaussian, Inc.),
 the Gaussian(R) 94 system (copyright 1995, Gaussian, Inc.),
 the Gaussian 92(TM) system (copyright 1992, Gaussian, Inc.),
 the Gaussian 90(TM) system (copyright 1990, Gaussian, Inc.),
 the Gaussian 88(TM) system (copyright 1988, Gaussian, Inc.),
 the Gaussian 86(TM) system (copyright 1986, Carnegie Mellon
 University), and the Gaussian 82(TM) system (copyright 1983,
 Carnegie Mellon University). Gaussian is a federally registered
 trademark of Gaussian, Inc.
  
 This software contains proprietary and confidential information,
 including trade secrets, belonging to Gaussian, Inc.
  
 This software is provided under written license and may be
 used, copied, transmitted, or stored only in accord with that
 written license.
  
 The following legend is applicable only to US Government
 contracts under FAR:
  
                    RESTRICTED RIGHTS LEGEND
  
 Use, reproduction and disclosure by the US Government is
 subject to restrictions as set forth in subparagraphs (a)
 and (c) of the Commercial Computer Software - Restricted
 Rights clause in FAR 52.227-19.
  
 Gaussian, Inc.
 340 Quinnipiac St., Bldg. 40, Wallingford CT 06492
  
  
 ---------------------------------------------------------------
 Warning -- This program may not be used in any manner that
 competes with the business of Gaussian, Inc. or will provide
 assistance to any competitor of Gaussian, Inc.  The licensee
 of this program is prohibited from giving any competitor of
 Gaussian, Inc. access to this program.  By using this program,
 the user acknowledges that Gaussian, Inc. is engaged in the
 business of creating and licensing software in the field of
 computational chemistry and represents and warrants to the
 licensee that it is not a competitor of Gaussian, Inc. and that
 it will not use this program in any manner prohibited above.
 ---------------------------------------------------------------
  

 Cite this work as:
 Gaussian 09, Revision B.01,
 M. J. Frisch, G. W. Trucks, H. B. Schlegel, G. E. Scuseria, 
 M. A. Robb, J. R. Cheeseman, G. Scalmani, V. Barone, B. Mennucci, 
 G. A. Petersson, H. Nakatsuji, M. Caricato, X. Li, H. P. Hratchian, 
 A. F. Izmaylov, J. Bloino, G. Zheng, J. L. Sonnenberg, M. Hada, 
 M. Ehara, K. Toyota, R. Fukuda, J. Hasegawa, M. Ishida, T. Nakajima, 
 Y. Honda, O. Kitao, H. Nakai, T. Vreven, J. A. Montgomery, Jr., 
 J. E. Peralta, F. Ogliaro, M. Bearpark, J. J. Heyd, E. Brothers, 
 K. N. Kudin, V. N. Staroverov, T. Keith, R. Kobayashi, J. Normand, 
 K. Raghavachari, A. Rendell, J. C. Burant, S. S. Iyengar, J. Tomasi, 
 M. Cossi, N. Rega, J. M. Millam, M. Klene, J. E. Knox, J. B. Cross, 
 V. Bakken, C. Adamo, J. Jaramillo, R. Gomperts, R. E. Stratmann, 
 O. Yazyev, A. J. Austin, R. Cammi, C. Pomelli, J. W. Ochterski, 
 R. L. Martin, K. Morokuma, V. G. Zakrzewski, G. A. Voth, 
 P. Salvador, J. J. Dannenberg, S. Dapprich, A. D. Daniels, 
 O. Farkas, J. B. Foresman, J. V. Ortiz, J. Cioslowski, 
 and D. J. Fox, Gaussian, Inc., Wallingford CT, 2010.
 
 ******************************************
 Gaussian 09:  AM64L-G09RevB.01 12-Aug-2010
                 3-Dec-2019 
 ******************************************
 %nproc=8
 Will use up to    8 processors via shared memory.
 %mem=6GB
 ----------------------------------------------------------------------
 #p ONIOM(hf/3-21g:hf/sto-3g) opt=(tight,ts,calcfc,noeigentest) freq=no
 raman
 ----------------------------------------------------------------------
 1/5=1,7=10,10=4,11=1,18=20,38=1,52=2/1,3;
 2/9=110,12=2,17=6,18=5,40=1/2;
 1/5=1,7=10,10=4,11=1,18=20,38=1,52=2,53=3172/20;
 3/6=3,11=9,16=1,25=1,30=1,71=2/1,2,3;
 4//1;
 5/5=2,38=5/2;
 8/6=4,10=90,11=11/1;
 11/6=1,8=1,9=11,15=111,16=1/1,2,10;
 10/6=1,7=6,13=1/2;
 6/7=2,8=2,9=2,10=2,28=1/1;
 7/7=1,10=1,18=20,25=1,33=-1/1,2,3,16;
 1/5=1,7=10,10=4,11=1,18=20,52=2,53=2032/20;
 3/5=5,11=9,16=1,25=1,30=1,71=2/1,2,3;
 4//1;
 5/5=2,38=5/2;
 8/6=4,10=90,11=11/1;
 11/6=1,8=1,9=11,15=111,16=1/1,2,10;
 10/6=1,7=6,13=1/2;
 6/7=2,8=2,9=2,10=2,28=1/1;
 7/7=1,10=1,18=20,25=1,33=-1/1,2,3,16;
 1/5=1,7=10,10=4,11=1,18=20,52=2,53=1022/20;
 3/6=3,11=9,16=1,25=1,30=1,71=2/1,2,3;
 4//1;
 5/5=2,38=5/2;
 8/6=4,10=90,11=11/1;
 11/6=1,8=1,9=11,15=111,16=1/1,2,10;
 10/6=1,7=6,13=1/2;
 6/7=2,8=2,9=2,10=2,28=1/1;
 7/7=1,10=1,18=20,25=1,33=-1/1,2,3,16;
 1/5=1,7=10,10=4,11=1,18=20,52=2,53=3016/20;
 7/9=1,25=1,44=-1/16;
 1/5=1,7=10,10=4,11=1,18=20,52=2/3(2);
 2/9=110/2;
 99//99;
 2/9=110/2;
 1/5=1,7=10,11=1,18=20,52=2,53=3173/20;
 3/6=3,11=9,16=1,25=1,30=1,71=1/1,2,3;
 4/5=5,16=3/1;
 5/5=2,38=5/2;
 7/7=1,33=-1/1,2,3,16;
 1/5=1,7=10,11=1,18=20,52=2,53=2033/20;
 3/5=5,11=9,16=1,25=1,30=1,71=1/1,2,3;
 4/5=5,16=3/1;
 5/5=2,38=5/2;
 7/7=1,33=-1/1,2,3,16;
 1/5=1,7=10,11=1,18=20,52=2,53=1023/20;
 3/6=3,11=9,16=1,25=1,30=1,71=1/1,2,3;
 4/5=5,16=3/1;
 5/5=2,38=5/2;
 7/7=1,33=-1/1,2,3,16;
 1/5=1,7=10,11=1,18=20,52=2,53=3015/20;
 7/9=1,44=-1/16;
 1/5=1,7=10,11=1,18=20,52=2/3(-18);
 2/9=110/2;
 99//99;
 Leave Link    1 at Tue Dec  3 18:55:46 2019, MaxMem=  805306368 cpu:       0.3
 (Enter /home/programs/G09_64/g09/l101.exe)
 --------------------------------
 Transition State, anti conformer
 --------------------------------
 Symbolic Z-matrix:
 Charge =  0 Multiplicity = 2 for low   level calculation on real  system.
 Charge =  0 Multiplicity = 2 for high  level calculation on model system.
 Charge =  0 Multiplicity = 2 for low   level calculation on model system.
 8                     1.11555  -0.45433   0.01569  H 
 6                     2.50632  -0.6773    0.0813   H 
 6                     3.30321   0.63087  -0.06942  H 
 1                     0.65115  -1.36818   0.0004   H 
 1                     4.36573   0.43471   0.03541  H 
 1                     3.00778   1.34725   0.69147  H 
 1                     3.13075   1.076    -1.04604  H 
 1                     2.84493  -1.43146  -0.64028  H 
 1                     2.81057  -1.16411   1.20556  H 
 1                     3.05832  -1.54432   2.08746  H 
 8                    -0.59383   0.56438  -1.78651  L 
 1                     0.25771   0.25371  -1.39982  L 
 1                    -0.74586   1.47398  -1.3058   L 
 8                    -0.8666    2.51287  -0.44425  L 
 1                    -0.17182   3.19049  -0.59227  L 
 1                    -0.60975   2.06151   0.45909  L 
 8                    -0.27805   1.23167   1.47271  L 
 1                    -1.09909   0.67403   1.61755  L 
 1                     0.36239   0.59143   1.07042  L 
 8                    -2.34693  -0.18851   1.48893  L 
 1                    -3.1613    0.36171   1.51486  L 
 1                    -2.33957  -0.54598   0.54754  L 
 8                    -0.20599  -2.48723  -0.13124  L 
 1                    -1.04256  -2.01623  -0.46641  L 
 1                    -0.47354  -2.83416   0.74853  L 
 8                    -2.01882  -1.01834  -0.83988  L 
 1                    -1.41729  -0.26846  -1.34783  L 
 1                    -2.72847  -1.29749  -1.45463  L 
 
 NAtoms=     28 NQM=     28 NQMF=      0 NMic=      0 NMicF=      0 NTot=     28.
                    Isotopes and Nuclear Properties:
 (Nuclear quadrupole moments (NQMom) in fm**2, nuclear magnetic moments (NMagM)
  in nuclear magnetons)

  Atom         1           2           3           4           5           6           7           8           9          10
 IAtWgt=          16          12          12           1           1           1           1           1           1           1
 AtmWgt=  15.9949146  12.0000000  12.0000000   1.0078250   1.0078250   1.0078250   1.0078250   1.0078250   1.0078250   1.0078250
 NucSpn=           0           0           0           1           1           1           1           1           1           1
 AtZEff=   0.0000000   0.0000000   0.0000000   0.0000000   0.0000000   0.0000000   0.0000000   0.0000000   0.0000000   0.0000000
 NQMom=    0.0000000   0.0000000   0.0000000   0.0000000   0.0000000   0.0000000   0.0000000   0.0000000   0.0000000   0.0000000
 NMagM=    0.0000000   0.0000000   0.0000000   2.7928460   2.7928460   2.7928460   2.7928460   2.7928460   2.7928460   2.7928460

  Atom        11          12          13          14          15          16          17          18          19          20
 IAtWgt=          16           1           1          16           1           1          16           1           1          16
 AtmWgt=  15.9949146   1.0078250   1.0078250  15.9949146   1.0078250   1.0078250  15.9949146   1.0078250   1.0078250  15.9949146
 NucSpn=           0           1           1           0           1           1           0           1           1           0
 AtZEff=   0.0000000   0.0000000   0.0000000   0.0000000   0.0000000   0.0000000   0.0000000   0.0000000   0.0000000   0.0000000
 NQMom=    0.0000000   0.0000000   0.0000000   0.0000000   0.0000000   0.0000000   0.0000000   0.0000000   0.0000000   0.0000000
 NMagM=    0.0000000   2.7928460   2.7928460   0.0000000   2.7928460   2.7928460   0.0000000   2.7928460   2.7928460   0.0000000

  Atom        21          22          23          24          25          26          27          28
 IAtWgt=           1           1          16           1           1          16           1           1
 AtmWgt=   1.0078250   1.0078250  15.9949146   1.0078250   1.0078250  15.9949146   1.0078250   1.0078250
 NucSpn=           1           1           0           1           1           0           1           1
 AtZEff=   0.0000000   0.0000000   0.0000000   0.0000000   0.0000000   0.0000000   0.0000000   0.0000000
 NQMom=    0.0000000   0.0000000   0.0000000   0.0000000   0.0000000   0.0000000   0.0000000   0.0000000
 NMagM=    2.7928460   2.7928460   0.0000000   2.7928460   2.7928460   0.0000000   2.7928460   2.7928460
 Leave Link  101 at Tue Dec  3 18:55:46 2019, MaxMem=  805306368 cpu:       0.8
 (Enter /home/programs/G09_64/g09/l103.exe)

 GradGradGradGradGradGradGradGradGradGradGradGradGradGradGradGradGradGrad
 Berny optimization.
 Initialization pass.
                           ----------------------------
                           !    Initial Parameters    !
                           ! (Angstroms and Degrees)  !
 --------------------------                            --------------------------
 ! Name  Definition              Value          Derivative Info.                !
 --------------------------------------------------------------------------------
 ! R1    R(1,2)                  1.4101         calculate D2E/DX2 analytically  !
 ! R2    R(1,4)                  1.0252         calculate D2E/DX2 analytically  !
 ! R3    R(1,12)                 1.8003         calculate D2E/DX2 analytically  !
 ! R4    R(1,19)                 1.6653         calculate D2E/DX2 analytically  !
 ! R5    R(2,3)                  1.5392         calculate D2E/DX2 analytically  !
 ! R6    R(2,8)                  1.0973         calculate D2E/DX2 analytically  !
 ! R7    R(2,9)                  1.2623         calculate D2E/DX2 analytically  !
 ! R8    R(3,5)                  1.0856         calculate D2E/DX2 analytically  !
 ! R9    R(3,6)                  1.086          calculate D2E/DX2 analytically  !
 ! R10   R(3,7)                  1.087          calculate D2E/DX2 analytically  !
 ! R11   R(4,23)                 1.4157         calculate D2E/DX2 analytically  !
 ! R12   R(9,10)                 0.9918         calculate D2E/DX2 analytically  !
 ! R13   R(11,12)                0.9855         calculate D2E/DX2 analytically  !
 ! R14   R(11,13)                1.04           calculate D2E/DX2 analytically  !
 ! R15   R(11,27)                1.2507         calculate D2E/DX2 analytically  !
 ! R16   R(13,14)                1.355          calculate D2E/DX2 analytically  !
 ! R17   R(14,15)                0.9817         calculate D2E/DX2 analytically  !
 ! R18   R(14,16)                1.042          calculate D2E/DX2 analytically  !
 ! R19   R(16,17)                1.3513         calculate D2E/DX2 analytically  !
 ! R20   R(17,18)                1.003          calculate D2E/DX2 analytically  !
 ! R21   R(17,19)                0.9909         calculate D2E/DX2 analytically  !
 ! R22   R(18,20)                1.5224         calculate D2E/DX2 analytically  !
 ! R23   R(20,21)                0.9832         calculate D2E/DX2 analytically  !
 ! R24   R(20,22)                1.007          calculate D2E/DX2 analytically  !
 ! R25   R(22,26)                1.5003         calculate D2E/DX2 analytically  !
 ! R26   R(23,24)                1.0169         calculate D2E/DX2 analytically  !
 ! R27   R(23,25)                0.9828         calculate D2E/DX2 analytically  !
 ! R28   R(24,26)                1.4451         calculate D2E/DX2 analytically  !
 ! R29   R(26,27)                1.0873         calculate D2E/DX2 analytically  !
 ! R30   R(26,28)                0.9795         calculate D2E/DX2 analytically  !
 ! A1    A(2,1,4)              107.8502         calculate D2E/DX2 analytically  !
 ! A2    A(2,1,12)             124.6646         calculate D2E/DX2 analytically  !
 ! A3    A(2,1,19)             121.0579         calculate D2E/DX2 analytically  !
 ! A4    A(4,1,12)              97.0653         calculate D2E/DX2 analytically  !
 ! A5    A(4,1,19)             111.3671         calculate D2E/DX2 analytically  !
 ! A6    A(12,1,19)             92.0348         calculate D2E/DX2 analytically  !
 ! A7    A(1,2,3)              111.8208         calculate D2E/DX2 analytically  !
 ! A8    A(1,2,8)              112.4849         calculate D2E/DX2 analytically  !
 ! A9    A(1,2,9)              109.8852         calculate D2E/DX2 analytically  !
 ! A10   A(3,2,8)              111.0989         calculate D2E/DX2 analytically  !
 ! A11   A(3,2,9)              106.8695         calculate D2E/DX2 analytically  !
 ! A12   A(8,2,9)              104.255          calculate D2E/DX2 analytically  !
 ! A13   A(2,3,5)              110.1033         calculate D2E/DX2 analytically  !
 ! A14   A(2,3,6)              110.5599         calculate D2E/DX2 analytically  !
 ! A15   A(2,3,7)              110.7235         calculate D2E/DX2 analytically  !
 ! A16   A(5,3,6)              108.5304         calculate D2E/DX2 analytically  !
 ! A17   A(5,3,7)              108.4237         calculate D2E/DX2 analytically  !
 ! A18   A(6,3,7)              108.4323         calculate D2E/DX2 analytically  !
 ! A19   A(1,4,23)             168.5896         calculate D2E/DX2 analytically  !
 ! A20   A(12,11,13)           102.7483         calculate D2E/DX2 analytically  !
 ! A21   A(12,11,27)           102.7898         calculate D2E/DX2 analytically  !
 ! A22   A(13,11,27)           108.9075         calculate D2E/DX2 analytically  !
 ! A23   A(1,12,11)            147.5937         calculate D2E/DX2 analytically  !
 ! A24   A(11,13,14)           167.8175         calculate D2E/DX2 analytically  !
 ! A25   A(13,14,15)           111.7324         calculate D2E/DX2 analytically  !
 ! A26   A(13,14,16)           101.3699         calculate D2E/DX2 analytically  !
 ! A27   A(15,14,16)           104.7885         calculate D2E/DX2 analytically  !
 ! A28   A(14,16,17)           167.6355         calculate D2E/DX2 analytically  !
 ! A29   A(16,17,18)           104.4067         calculate D2E/DX2 analytically  !
 ! A30   A(16,17,19)           104.531          calculate D2E/DX2 analytically  !
 ! A31   A(18,17,19)           103.2069         calculate D2E/DX2 analytically  !
 ! A32   A(17,18,20)           166.8422         calculate D2E/DX2 analytically  !
 ! A33   A(1,19,17)            162.7765         calculate D2E/DX2 analytically  !
 ! A34   A(18,20,21)           111.0779         calculate D2E/DX2 analytically  !
 ! A35   A(18,20,22)           105.9092         calculate D2E/DX2 analytically  !
 ! A36   A(21,20,22)           103.2604         calculate D2E/DX2 analytically  !
 ! A37   A(20,22,26)           167.9118         calculate D2E/DX2 analytically  !
 ! A38   A(4,23,24)             99.3592         calculate D2E/DX2 analytically  !
 ! A39   A(4,23,25)            111.1372         calculate D2E/DX2 analytically  !
 ! A40   A(24,23,25)           103.5678         calculate D2E/DX2 analytically  !
 ! A41   A(23,24,26)           163.9044         calculate D2E/DX2 analytically  !
 ! A42   A(22,26,24)            97.0562         calculate D2E/DX2 analytically  !
 ! A43   A(22,26,27)           109.4607         calculate D2E/DX2 analytically  !
 ! A44   A(22,26,28)           121.0117         calculate D2E/DX2 analytically  !
 ! A45   A(24,26,27)           102.8992         calculate D2E/DX2 analytically  !
 ! A46   A(24,26,28)           117.0551         calculate D2E/DX2 analytically  !
 ! A47   A(27,26,28)           107.7083         calculate D2E/DX2 analytically  !
 ! A48   A(11,27,26)           170.8985         calculate D2E/DX2 analytically  !
 ! A49   L(2,9,10,3,-1)        179.6019         calculate D2E/DX2 analytically  !
 ! A50   L(2,9,10,3,-2)        180.5259         calculate D2E/DX2 analytically  !
 ! D1    D(4,1,2,3)            172.8232         calculate D2E/DX2 analytically  !
 ! D2    D(4,1,2,8)             46.9928         calculate D2E/DX2 analytically  !
 ! D3    D(4,1,2,9)            -68.672          calculate D2E/DX2 analytically  !
 ! D4    D(12,1,2,3)            60.5019         calculate D2E/DX2 analytically  !
 ! D5    D(12,1,2,8)           -65.3285         calculate D2E/DX2 analytically  !
 ! D6    D(12,1,2,9)           179.0068         calculate D2E/DX2 analytically  !
 ! D7    D(19,1,2,3)           -57.3282         calculate D2E/DX2 analytically  !
 ! D8    D(19,1,2,8)           176.8414         calculate D2E/DX2 analytically  !
 ! D9    D(19,1,2,9)            61.1767         calculate D2E/DX2 analytically  !
 ! D10   D(2,1,4,23)          -159.1912         calculate D2E/DX2 analytically  !
 ! D11   D(12,1,4,23)          -29.2485         calculate D2E/DX2 analytically  !
 ! D12   D(19,1,4,23)           65.7373         calculate D2E/DX2 analytically  !
 ! D13   D(2,1,12,11)         -176.9803         calculate D2E/DX2 analytically  !
 ! D14   D(4,1,12,11)           65.5524         calculate D2E/DX2 analytically  !
 ! D15   D(19,1,12,11)         -46.2721         calculate D2E/DX2 analytically  !
 ! D16   D(2,1,19,17)          154.0023         calculate D2E/DX2 analytically  !
 ! D17   D(4,1,19,17)          -77.6925         calculate D2E/DX2 analytically  !
 ! D18   D(12,1,19,17)          20.7063         calculate D2E/DX2 analytically  !
 ! D19   D(1,2,3,5)            177.1398         calculate D2E/DX2 analytically  !
 ! D20   D(1,2,3,6)             57.2236         calculate D2E/DX2 analytically  !
 ! D21   D(1,2,3,7)            -62.9724         calculate D2E/DX2 analytically  !
 ! D22   D(8,2,3,5)            -56.2728         calculate D2E/DX2 analytically  !
 ! D23   D(8,2,3,6)           -176.189          calculate D2E/DX2 analytically  !
 ! D24   D(8,2,3,7)             63.615          calculate D2E/DX2 analytically  !
 ! D25   D(9,2,3,5)             56.8563         calculate D2E/DX2 analytically  !
 ! D26   D(9,2,3,6)            -63.0599         calculate D2E/DX2 analytically  !
 ! D27   D(9,2,3,7)            176.7441         calculate D2E/DX2 analytically  !
 ! D28   D(1,4,23,24)           -4.0955         calculate D2E/DX2 analytically  !
 ! D29   D(1,4,23,25)         -112.6757         calculate D2E/DX2 analytically  !
 ! D30   D(13,11,12,1)          74.9082         calculate D2E/DX2 analytically  !
 ! D31   D(27,11,12,1)         -38.1735         calculate D2E/DX2 analytically  !
 ! D32   D(12,11,13,14)        -44.6201         calculate D2E/DX2 analytically  !
 ! D33   D(27,11,13,14)         63.8862         calculate D2E/DX2 analytically  !
 ! D34   D(12,11,27,26)         23.6789         calculate D2E/DX2 analytically  !
 ! D35   D(13,11,27,26)        -84.7994         calculate D2E/DX2 analytically  !
 ! D36   D(11,13,14,15)        110.4858         calculate D2E/DX2 analytically  !
 ! D37   D(11,13,14,16)         -0.6413         calculate D2E/DX2 analytically  !
 ! D38   D(13,14,16,17)         -7.039          calculate D2E/DX2 analytically  !
 ! D39   D(15,14,16,17)       -123.3798         calculate D2E/DX2 analytically  !
 ! D40   D(14,16,17,18)        -67.6744         calculate D2E/DX2 analytically  !
 ! D41   D(14,16,17,19)         40.4007         calculate D2E/DX2 analytically  !
 ! D42   D(16,17,18,20)         43.8823         calculate D2E/DX2 analytically  !
 ! D43   D(19,17,18,20)        -65.1663         calculate D2E/DX2 analytically  !
 ! D44   D(16,17,19,1)         -40.461          calculate D2E/DX2 analytically  !
 ! D45   D(18,17,19,1)          68.4945         calculate D2E/DX2 analytically  !
 ! D46   D(17,18,20,21)        -95.5405         calculate D2E/DX2 analytically  !
 ! D47   D(17,18,20,22)         15.8962         calculate D2E/DX2 analytically  !
 ! D48   D(18,20,22,26)         21.9735         calculate D2E/DX2 analytically  !
 ! D49   D(21,20,22,26)        138.8054         calculate D2E/DX2 analytically  !
 ! D50   D(20,22,26,24)         57.5066         calculate D2E/DX2 analytically  !
 ! D51   D(20,22,26,27)        -48.8914         calculate D2E/DX2 analytically  !
 ! D52   D(20,22,26,28)       -174.9643         calculate D2E/DX2 analytically  !
 ! D53   D(4,23,24,26)         -10.4359         calculate D2E/DX2 analytically  !
 ! D54   D(25,23,24,26)        104.1297         calculate D2E/DX2 analytically  !
 ! D55   D(23,24,26,22)        -68.4365         calculate D2E/DX2 analytically  !
 ! D56   D(23,24,26,27)         43.4483         calculate D2E/DX2 analytically  !
 ! D57   D(23,24,26,28)        161.3112         calculate D2E/DX2 analytically  !
 ! D58   D(22,26,27,11)         60.479          calculate D2E/DX2 analytically  !
 ! D59   D(24,26,27,11)        -41.912          calculate D2E/DX2 analytically  !
 ! D60   D(28,26,27,11)       -166.1726         calculate D2E/DX2 analytically  !
 --------------------------------------------------------------------------------
 Trust Radius=3.00D-01 FncErr=1.00D-07 GrdErr=1.00D-07
 Number of steps in this run=    150 maximum allowed number of steps=    168.
 Search for a saddle point of order  1.
 GradGradGradGradGradGradGradGradGradGradGradGradGradGradGradGradGradGrad

 Leave Link  103 at Tue Dec  3 18:55:46 2019, MaxMem=  805306368 cpu:       0.1
 (Enter /home/programs/G09_64/g09/l202.exe)
                          Input orientation:                          
 ---------------------------------------------------------------------
 Center     Atomic      Atomic             Coordinates (Angstroms)
 Number     Number       Type             X           Y           Z
 ---------------------------------------------------------------------
      1          8           0        1.115553   -0.454328    0.015693
      2          6           0        2.506324   -0.677295    0.081299
      3          6           0        3.303210    0.630873   -0.069419
      4          1           0        0.651154   -1.368184    0.000395
      5          1           0        4.365735    0.434709    0.035409
      6          1           0        3.007775    1.347246    0.691467
      7          1           0        3.130745    1.075998   -1.046040
      8          1           0        2.844931   -1.431457   -0.640279
      9          1           0        2.810569   -1.164111    1.205560
     10          1           0        3.058322   -1.544317    2.087463
     11          8           0       -0.593827    0.564378   -1.786513
     12          1           0        0.257707    0.253714   -1.399824
     13          1           0       -0.745864    1.473976   -1.305800
     14          8           0       -0.866595    2.512870   -0.444254
     15          1           0       -0.171816    3.190485   -0.592271
     16          1           0       -0.609753    2.061514    0.459086
     17          8           0       -0.278051    1.231669    1.472707
     18          1           0       -1.099094    0.674029    1.617552
     19          1           0        0.362390    0.591431    1.070424
     20          8           0       -2.346934   -0.188507    1.488933
     21          1           0       -3.161303    0.361713    1.514860
     22          1           0       -2.339570   -0.545982    0.547542
     23          8           0       -0.205989   -2.487229   -0.131243
     24          1           0       -1.042555   -2.016234   -0.466411
     25          1           0       -0.473535   -2.834160    0.748530
     26          8           0       -2.018816   -1.018340   -0.839882
     27          1           0       -1.417287   -0.268456   -1.347833
     28          1           0       -2.728474   -1.297487   -1.454631
 ---------------------------------------------------------------------
                    Distance matrix (angstroms):
                    1          2          3          4          5
     1  O    0.000000
     2  C    1.410058   0.000000
     3  C    2.443511   1.539171   0.000000
     4  H    1.025199   1.981295   3.321822   0.000000
     5  H    3.369638   2.167041   1.085555   4.129136   0.000000
     6  H    2.698674   2.173137   1.086011   3.661257   1.762723
     7  H    2.744116   2.175967   1.087046   3.635577   1.762380
     8  H    2.091848   1.097310   2.188403   2.286290   2.500395
     9  H    2.189213   1.262346   2.256155   2.481359   2.518734
    10  H    3.042147   2.254135   3.073038   3.190820   3.136367
    11  O    2.684714   3.826410   4.259076   2.911669   5.285212
    12  H    1.800253   2.848997   3.344744   2.178524   4.355290
    13  H    2.988239   4.138688   4.316765   3.425738   5.385848
    14  O    3.597878   4.672252   4.590173   4.190925   5.650319
    15  H    3.913004   4.752458   4.347504   4.670117   5.345807
    16  H    3.082651   4.165781   4.199682   3.682813   5.251807
    17  O    2.628233   3.651425   3.945192   3.128955   4.926025
    18  H    2.956992   4.145502   4.714659   3.138343   5.694278
    19  H    1.665330   2.680389   3.154238   2.251319   4.137945
    20  O    3.772256   5.076855   5.918105   3.549072   6.896452
    21  H    4.604880   5.937729   6.661255   4.452075   7.671402
    22  H    3.497019   4.870043   5.797120   3.149574   6.795966
    23  O    2.429146   3.267671   4.694769   1.415728   5.428274
    24  H    2.707287   3.832400   5.103964   1.872572   5.958905
    25  H    2.953955   3.738559   5.190308   1.993418   5.883246
    26  O    3.297634   4.630527   5.624720   2.820850   6.606056
    27  H    2.882539   4.195747   4.972547   2.702882   5.987582
    28  H    4.201109   5.490613   6.482175   3.680215   7.453088
                    6          7          8          9         10
     6  H    0.000000
     7  H    1.762846   0.000000
     8  H    3.085653   2.556103   0.000000
     9  H    2.571011   3.192225   1.865416   0.000000
    10  H    3.211308   4.085356   2.738403   0.991812   0.000000
    11  O    4.441262   3.831774   4.137906   4.850782   5.726472
    12  H    3.623836   3.009263   3.179691   3.913484   4.820532
    13  H    4.253815   3.905632   4.666719   5.090643   5.924201
    14  O    4.202295   4.290160   5.419554   5.455604   6.186706
    15  H    3.892982   3.947641   5.519548   5.575780   6.327173
    16  H    3.694684   4.150659   5.034311   4.760303   5.395220
    17  O    3.379400   4.241251   4.616272   3.917997   4.383538
    18  H    4.263476   5.014762   5.008613   4.339811   4.735608
    19  H    2.777216   3.518240   3.630646   3.015588   3.586619
    20  O    5.627379   6.166849   5.747515   5.256609   5.604753
    21  H    6.301331   6.830687   6.628343   6.171472   6.530280
    22  H    5.674427   5.924075   5.392034   5.228671   5.701339
    23  O    5.070338   4.966612   3.268315   3.554899   4.058013
    24  H    5.390626   5.226309   3.935066   4.285810   4.854088
    25  H    5.441225   5.612544   3.861163   3.712584   3.991297
    26  O    5.762607   5.562979   4.885339   5.246717   5.884159
    27  H    5.133265   4.752182   4.474339   5.019639   5.784475
    28  H    6.671199   6.334889   5.634178   6.146170   6.789283
                   11         12         13         14         15
    11  O    0.000000
    12  H    0.985470   0.000000
    13  H    1.039985   1.582730   0.000000
    14  O    2.381739   2.698324   1.355042   0.000000
    15  H    2.915604   3.075915   1.945523   0.981728   0.000000
    16  H    2.698960   2.734259   1.865087   1.041976   1.603657
    17  O    3.341782   3.081374   2.828014   2.379622   2.848224
    18  H    3.443106   3.334986   3.051340   2.772442   3.475013
    19  H    3.012835   2.495423   2.766506   2.737989   3.131296
    20  O    3.790616   3.914669   3.624611   3.636764   4.525498
    21  H    4.187131   4.494071   3.876545   3.705575   4.623741
    22  H    3.119027   3.343291   3.170963   3.536932   4.467607
    23  O    3.493228   3.055664   4.166797   5.053253   5.696503
    24  H    2.933187   2.777518   3.601967   4.532575   5.280526
    25  H    4.241577   3.832115   4.780635   5.492537   6.179412
    26  O    2.330601   2.667248   2.837098   3.735449   4.602926
    27  H    1.250655   1.755269   1.867791   2.975818   3.753178
    28  H    2.851912   3.365487   3.410850   4.359619   5.236607
                   16         17         18         19         20
    16  H    0.000000
    17  O    1.351331   0.000000
    18  H    1.872595   1.003022   0.000000
    19  H    1.865460   0.990909   1.562724   0.000000
    20  O    3.023405   2.509470   1.522372   2.850244   0.000000
    21  H    3.242590   3.011933   2.088251   3.559032   0.983164
    22  H    3.130356   2.875036   2.042579   2.977869   1.007005
    23  O    4.604626   4.050685   3.721488   3.353387   3.534507
    24  H    4.203795   3.859212   3.403471   3.337012   2.977476
    25  H    4.906114   4.134442   3.667958   3.540771   3.325252
    26  O    3.627434   3.666179   3.122336   3.451199   2.493925
    27  H    3.057095   3.391707   3.127784   3.123239   2.986281
    28  H    4.408421   4.579357   3.997507   4.415581   3.168593
                   21         22         23         24         25
    21  H    0.000000
    22  H    1.560404   0.000000
    23  O    4.422670   2.963335   0.000000
    24  H    3.750888   2.207258   1.016866   0.000000
    25  H    4.245582   2.959433   0.982824   1.571263   0.000000
    26  O    2.958823   1.500317   2.438472   1.445115   2.864987
    27  H    3.410823   2.126046   2.805403   1.993002   3.445032
    28  H    3.429018   2.173638   3.087033   2.082186   3.507140
                   26         27         28
    26  O    0.000000
    27  H    1.087280   0.000000
    28  H    0.979517   1.670186   0.000000
 Stoichiometry    C2H19O7(2)
 Framework group  C1[X(C2H19O7)]
 Deg. of freedom    78
 Full point group                 C1      NOp   1
 Largest Abelian subgroup         C1      NOp   1
 Largest concise Abelian subgroup C1      NOp   1
                         Standard orientation:                         
 ---------------------------------------------------------------------
 Center     Atomic      Atomic             Coordinates (Angstroms)
 Number     Number       Type             X           Y           Z
 ---------------------------------------------------------------------
      1          8           0        1.115553   -0.454328    0.015693
      2          6           0        2.506324   -0.677295    0.081299
      3          6           0        3.303210    0.630873   -0.069419
      4          1           0        0.651154   -1.368184    0.000395
      5          1           0        4.365735    0.434709    0.035409
      6          1           0        3.007775    1.347246    0.691467
      7          1           0        3.130745    1.075998   -1.046040
      8          1           0        2.844931   -1.431457   -0.640279
      9          1           0        2.810569   -1.164111    1.205560
     10          1           0        3.058322   -1.544317    2.087463
     11          8           0       -0.593827    0.564378   -1.786513
     12          1           0        0.257707    0.253714   -1.399824
     13          1           0       -0.745864    1.473976   -1.305800
     14          8           0       -0.866595    2.512870   -0.444254
     15          1           0       -0.171816    3.190485   -0.592271
     16          1           0       -0.609753    2.061514    0.459086
     17          8           0       -0.278051    1.231669    1.472707
     18          1           0       -1.099094    0.674029    1.617552
     19          1           0        0.362390    0.591431    1.070424
     20          8           0       -2.346934   -0.188507    1.488933
     21          1           0       -3.161303    0.361713    1.514860
     22          1           0       -2.339570   -0.545982    0.547542
     23          8           0       -0.205989   -2.487229   -0.131243
     24          1           0       -1.042555   -2.016234   -0.466411
     25          1           0       -0.473535   -2.834160    0.748530
     26          8           0       -2.018816   -1.018340   -0.839882
     27          1           0       -1.417287   -0.268456   -1.347833
     28          1           0       -2.728474   -1.297487   -1.454631
 ---------------------------------------------------------------------
 Rotational constants (GHZ):      1.0935446      0.7763304      0.6357308
 Leave Link  202 at Tue Dec  3 18:55:46 2019, MaxMem=  805306368 cpu:       0.0
 (Enter /home/programs/G09_64/g09/l120.exe)
 ONIOM: saving gridpoint 17
 ONIOM: generating point  3 -- low level on real system.
 Leave Link  120 at Tue Dec  3 18:55:46 2019, MaxMem=  805306368 cpu:       0.0
 (Enter /home/programs/G09_64/g09/l301.exe)
 Standard basis: STO-3G (5D, 7F)
 Ernie: Thresh=  0.10000D-02 Tol=  0.10000D-05 Strict=F.
 There are    64 symmetry adapted basis functions of A   symmetry.
 Integral buffers will be    131072 words long.
 Raffenetti 2 integral format.
 Two-electron integral symmetry is turned on.
    64 basis functions,   192 primitive gaussians,    64 cartesian basis functions
    44 alpha electrons       43 beta electrons
       nuclear repulsion energy       624.2906112488 Hartrees.
 IExCor=    0 DFT=F Ex=HF Corr=None ExCW=0 ScaHFX=  1.000000
 ScaDFX=  1.000000  1.000000  1.000000  1.000000 ScalE2=  1.000000  1.000000
 IRadAn=      0 IRanWt=     -1 IRanGd=            0 ICorTp=0
 NAtoms=   28 NActive=   28 NUniq=   28 SFac= 1.00D+00 NAtFMM=   50 NAOKFM=F Big=F
 Leave Link  301 at Tue Dec  3 18:55:46 2019, MaxMem=  805306368 cpu:       0.3
 (Enter /home/programs/G09_64/g09/l302.exe)
 NPDir=0 NMtPBC=     1 NCelOv=     1 NCel=       1 NClECP=     1 NCelD=      1
         NCelK=      1 NCelE2=     1 NClLst=     1 CellRange=     0.0.
 One-electron integrals computed using PRISM.
 NBasis=    64 RedAO= T  NBF=    64
 NBsUse=    64 1.00D-06 NBFU=    64
 Leave Link  302 at Tue Dec  3 18:55:46 2019, MaxMem=  805306368 cpu:       0.9
 (Enter /home/programs/G09_64/g09/l303.exe)
 DipDrv:  MaxL=1.
 Leave Link  303 at Tue Dec  3 18:55:47 2019, MaxMem=  805306368 cpu:       0.2
 (Enter /home/programs/G09_64/g09/l401.exe)
 Harris functional with IExCor=  205 diagonalized for initial guess.
 ExpMin= 1.69D-01 ExpMax= 1.31D+02 ExpMxC= 1.31D+02 IAcc=1 IRadAn=         1 AccDes= 0.00D+00
 HarFok:  IExCor=  205 AccDes= 0.00D+00 IRadAn=         1 IDoV= 1
 ScaDFX=  1.000000  1.000000  1.000000  1.000000
 FoFCou: FMM=F IPFlag=           0 FMFlag=      100000 FMFlg1=           0
         NFxFlg=           0 DoJE=T BraDBF=F KetDBF=T FulRan=T
         Omega=  0.000000  0.000000  1.000000  0.000000  0.000000 ICntrl=     500 IOpCl=  0
         NMat0=    1 NMatS0=    1 NMatT0=    0 NMatD0=    1 NMtDS0=    0 NMtDT0=    0
         I1Cent=           4 NGrid=           0.
 Petite list used in FoFCou.
 Harris En= -603.239357674152    
 Initial guess orbital symmetries:
 Alpha Orbitals:
       Occupied  (A) (A) (A) (A) (A) (A) (A) (A) (A) (A) (A) (A)
                 (A) (A) (A) (A) (A) (A) (A) (A) (A) (A) (A) (A)
                 (A) (A) (A) (A) (A) (A) (A) (A) (A) (A) (A) (A)
                 (A) (A) (A) (A) (A) (A) (A) (A)
       Virtual   (A) (A) (A) (A) (A) (A) (A) (A) (A) (A) (A) (A)
                 (A) (A) (A) (A) (A) (A) (A) (A)
 Beta  Orbitals:
       Occupied  (A) (A) (A) (A) (A) (A) (A) (A) (A) (A) (A) (A)
                 (A) (A) (A) (A) (A) (A) (A) (A) (A) (A) (A) (A)
                 (A) (A) (A) (A) (A) (A) (A) (A) (A) (A) (A) (A)
                 (A) (A) (A) (A) (A) (A) (A)
       Virtual   (A) (A) (A) (A) (A) (A) (A) (A) (A) (A) (A) (A)
                 (A) (A) (A) (A) (A) (A) (A) (A) (A)
 The electronic state of the initial guess is 2-A.
 Initial guess <Sx>= 0.0000 <Sy>= 0.0000 <Sz>= 0.5000 <S**2>= 0.7500 S= 0.5000
 Leave Link  401 at Tue Dec  3 18:55:47 2019, MaxMem=  805306368 cpu:       1.8
 (Enter /home/programs/G09_64/g09/l502.exe)
 UHF open shell SCF:
 Requested convergence on RMS density matrix=1.00D-08 within 128 cycles.
 Requested convergence on MAX density matrix=1.00D-06.
 Requested convergence on             energy=1.00D-06.
 No special actions if energy rises.
 Using DIIS extrapolation, IDIIS=  1040.
 Integral symmetry usage will be decided dynamically.
 Keep R1 and R2 ints in memory in canonical form, NReq=5159988.
 IEnd=       31487 IEndB=       31487 NGot=   805306368 MDV=   800967174
 LenX=   800967174 LenY=   800962637
 Symmetry not used in FoFDir.
 MinBra= 0 MaxBra= 1 Meth= 1.
 IRaf=       0 NMat=   1 IRICut=       1 DoRegI=T DoRafI=F ISym2E= 0 JSym2E=0.

 Cycle   1  Pass 1  IDiag  1:
 E= -602.268517481165    
 DIIS: error= 3.22D-02 at cycle   1 NSaved=   1.
 NSaved= 1 IEnMin= 1 EnMin= -602.268517481165     IErMin= 1 ErrMin= 3.22D-02
 ErrMax= 3.22D-02 EMaxC= 1.00D-01 BMatC= 7.02D-01 BMatP= 7.02D-01
 IDIUse=3 WtCom= 6.78D-01 WtEn= 3.22D-01
 Coeff-Com:  0.100D+01
 Coeff-En:   0.100D+01
 Coeff:      0.100D+01
 Gap=     0.829 Goal=   None    Shift=    0.000
 Gap=     0.514 Goal=   None    Shift=    0.000
 GapD=    0.514 DampG=2.000 DampE=0.500 DampFc=1.0000 IDamp=-1.
 RMSDP=9.00D-03 MaxDP=1.12D-01              OVMax= 0.00D+00

 Cycle   2  Pass 1  IDiag  1:
 E= -602.480037685406     Delta-E=       -0.211520204241 Rises=F Damp=F
 DIIS: error= 7.40D-03 at cycle   2 NSaved=   2.
 NSaved= 2 IEnMin= 2 EnMin= -602.480037685406     IErMin= 2 ErrMin= 7.40D-03
 ErrMax= 7.40D-03 EMaxC= 1.00D-01 BMatC= 2.81D-02 BMatP= 7.02D-01
 IDIUse=3 WtCom= 9.26D-01 WtEn= 7.40D-02
 Coeff-Com:  0.258D-01 0.974D+00
 Coeff-En:   0.000D+00 0.100D+01
 Coeff:      0.238D-01 0.976D+00
 Gap=     0.800 Goal=   None    Shift=    0.000
 Gap=     0.547 Goal=   None    Shift=    0.000
 RMSDP=2.16D-03 MaxDP=3.89D-02 DE=-2.12D-01 OVMax= 0.00D+00

 Cycle   3  Pass 1  IDiag  1:
 E= -602.492464860798     Delta-E=       -0.012427175392 Rises=F Damp=F
 DIIS: error= 6.55D-03 at cycle   3 NSaved=   3.
 NSaved= 3 IEnMin= 3 EnMin= -602.492464860798     IErMin= 3 ErrMin= 6.55D-03
 ErrMax= 6.55D-03 EMaxC= 1.00D-01 BMatC= 3.85D-03 BMatP= 2.81D-02
 IDIUse=3 WtCom= 9.34D-01 WtEn= 6.55D-02
 Coeff-Com: -0.299D-01-0.463D-01 0.108D+01
 Coeff-En:   0.000D+00 0.000D+00 0.100D+01
 Coeff:     -0.279D-01-0.433D-01 0.107D+01
 Gap=     0.800 Goal=   None    Shift=    0.000
 Gap=     0.570 Goal=   None    Shift=    0.000
 RMSDP=1.03D-03 MaxDP=2.46D-02 DE=-1.24D-02 OVMax= 0.00D+00

 Cycle   4  Pass 1  IDiag  1:
 E= -602.495196657176     Delta-E=       -0.002731796378 Rises=F Damp=F
 DIIS: error= 2.68D-03 at cycle   4 NSaved=   4.
 NSaved= 4 IEnMin= 4 EnMin= -602.495196657176     IErMin= 4 ErrMin= 2.68D-03
 ErrMax= 2.68D-03 EMaxC= 1.00D-01 BMatC= 8.44D-04 BMatP= 3.85D-03
 IDIUse=3 WtCom= 9.73D-01 WtEn= 2.68D-02
 Coeff-Com:  0.218D-02-0.114D+00-0.194D+00 0.131D+01
 Coeff-En:   0.000D+00 0.000D+00 0.000D+00 0.100D+01
 Coeff:      0.212D-02-0.111D+00-0.189D+00 0.130D+01
 Gap=     0.806 Goal=   None    Shift=    0.000
 Gap=     0.568 Goal=   None    Shift=    0.000
 RMSDP=6.50D-04 MaxDP=1.75D-02 DE=-2.73D-03 OVMax= 0.00D+00

 Cycle   5  Pass 1  IDiag  1:
 E= -602.495948611338     Delta-E=       -0.000751954162 Rises=F Damp=F
 DIIS: error= 1.06D-03 at cycle   5 NSaved=   5.
 NSaved= 5 IEnMin= 5 EnMin= -602.495948611338     IErMin= 5 ErrMin= 1.06D-03
 ErrMax= 1.06D-03 EMaxC= 1.00D-01 BMatC= 9.73D-05 BMatP= 8.44D-04
 IDIUse=3 WtCom= 9.89D-01 WtEn= 1.06D-02
 Coeff-Com:  0.274D-02 0.276D-01-0.941D-01-0.219D+00 0.128D+01
 Coeff-En:   0.000D+00 0.000D+00 0.000D+00 0.000D+00 0.100D+01
 Coeff:      0.271D-02 0.274D-01-0.931D-01-0.217D+00 0.128D+01
 Gap=     0.806 Goal=   None    Shift=    0.000
 Gap=     0.570 Goal=   None    Shift=    0.000
 RMSDP=2.50D-04 MaxDP=5.85D-03 DE=-7.52D-04 OVMax= 0.00D+00

 Cycle   6  Pass 1  IDiag  1:
 E= -602.496050358159     Delta-E=       -0.000101746821 Rises=F Damp=F
 DIIS: error= 3.21D-04 at cycle   6 NSaved=   6.
 NSaved= 6 IEnMin= 6 EnMin= -602.496050358159     IErMin= 6 ErrMin= 3.21D-04
 ErrMax= 3.21D-04 EMaxC= 1.00D-01 BMatC= 1.42D-05 BMatP= 9.73D-05
 IDIUse=3 WtCom= 9.97D-01 WtEn= 3.21D-03
 Coeff-Com: -0.759D-03 0.101D-01 0.391D-01-0.125D+00-0.190D+00 0.127D+01
 Coeff-En:   0.000D+00 0.000D+00 0.000D+00 0.000D+00 0.000D+00 0.100D+01
 Coeff:     -0.757D-03 0.100D-01 0.390D-01-0.124D+00-0.189D+00 0.127D+01
 Gap=     0.807 Goal=   None    Shift=    0.000
 Gap=     0.570 Goal=   None    Shift=    0.000
 RMSDP=9.37D-05 MaxDP=1.93D-03 DE=-1.02D-04 OVMax= 0.00D+00

 Cycle   7  Pass 1  IDiag  1:
 E= -602.496065182001     Delta-E=       -0.000014823841 Rises=F Damp=F
 DIIS: error= 1.40D-04 at cycle   7 NSaved=   7.
 NSaved= 7 IEnMin= 7 EnMin= -602.496065182001     IErMin= 7 ErrMin= 1.40D-04
 ErrMax= 1.40D-04 EMaxC= 1.00D-01 BMatC= 2.80D-06 BMatP= 1.42D-05
 IDIUse=3 WtCom= 9.99D-01 WtEn= 1.40D-03
 Coeff-Com: -0.861D-04-0.888D-02-0.240D-02 0.877D-01-0.109D+00-0.627D+00
 Coeff-Com:  0.166D+01
 Coeff-En:   0.000D+00 0.000D+00 0.000D+00 0.000D+00 0.000D+00 0.000D+00
 Coeff-En:   0.100D+01
 Coeff:     -0.860D-04-0.887D-02-0.240D-02 0.876D-01-0.108D+00-0.626D+00
 Coeff:      0.166D+01
 Gap=     0.807 Goal=   None    Shift=    0.000
 Gap=     0.570 Goal=   None    Shift=    0.000
 RMSDP=5.46D-05 MaxDP=9.43D-04 DE=-1.48D-05 OVMax= 0.00D+00

 Cycle   8  Pass 1  IDiag  1:
 E= -602.496068470933     Delta-E=       -0.000003288932 Rises=F Damp=F
 DIIS: error= 5.07D-05 at cycle   8 NSaved=   8.
 NSaved= 8 IEnMin= 8 EnMin= -602.496068470933     IErMin= 8 ErrMin= 5.07D-05
 ErrMax= 5.07D-05 EMaxC= 1.00D-01 BMatC= 2.60D-07 BMatP= 2.80D-06
 IDIUse=1 WtCom= 1.00D+00 WtEn= 0.00D+00
 Coeff-Com:  0.110D-03-0.402D-03-0.550D-02 0.901D-02 0.422D-01-0.105D+00
 Coeff-Com: -0.204D+00 0.126D+01
 Coeff:      0.110D-03-0.402D-03-0.550D-02 0.901D-02 0.422D-01-0.105D+00
 Coeff:     -0.204D+00 0.126D+01
 Gap=     0.807 Goal=   None    Shift=    0.000
 Gap=     0.570 Goal=   None    Shift=    0.000
 RMSDP=1.45D-05 MaxDP=3.01D-04 DE=-3.29D-06 OVMax= 0.00D+00

 Cycle   9  Pass 1  IDiag  1:
 E= -602.496068717386     Delta-E=       -0.000000246452 Rises=F Damp=F
 DIIS: error= 1.50D-05 at cycle   9 NSaved=   9.
 NSaved= 9 IEnMin= 9 EnMin= -602.496068717386     IErMin= 9 ErrMin= 1.50D-05
 ErrMax= 1.50D-05 EMaxC= 1.00D-01 BMatC= 3.26D-08 BMatP= 2.60D-07
 IDIUse=1 WtCom= 1.00D+00 WtEn= 0.00D+00
 Coeff-Com: -0.149D-04 0.841D-03 0.123D-02-0.906D-02-0.832D-03 0.795D-01
 Coeff-Com: -0.993D-01-0.301D+00 0.133D+01
 Coeff:     -0.149D-04 0.841D-03 0.123D-02-0.906D-02-0.832D-03 0.795D-01
 Coeff:     -0.993D-01-0.301D+00 0.133D+01
 Gap=     0.807 Goal=   None    Shift=    0.000
 Gap=     0.570 Goal=   None    Shift=    0.000
 RMSDP=4.18D-06 MaxDP=8.73D-05 DE=-2.46D-07 OVMax= 0.00D+00

 Cycle  10  Pass 1  IDiag  1:
 E= -602.496068747263     Delta-E=       -0.000000029877 Rises=F Damp=F
 DIIS: error= 6.46D-06 at cycle  10 NSaved=  10.
 NSaved=10 IEnMin=10 EnMin= -602.496068747263     IErMin=10 ErrMin= 6.46D-06
 ErrMax= 6.46D-06 EMaxC= 1.00D-01 BMatC= 6.52D-09 BMatP= 3.26D-08
 IDIUse=1 WtCom= 1.00D+00 WtEn= 0.00D+00
 Coeff-Com: -0.148D-04-0.170D-03 0.693D-03 0.728D-03-0.782D-02-0.162D-02
 Coeff-Com:  0.613D-01-0.148D+00-0.332D+00 0.143D+01
 Coeff:     -0.148D-04-0.170D-03 0.693D-03 0.728D-03-0.782D-02-0.162D-02
 Coeff:      0.613D-01-0.148D+00-0.332D+00 0.143D+01
 Gap=     0.807 Goal=   None    Shift=    0.000
 Gap=     0.570 Goal=   None    Shift=    0.000
 RMSDP=2.25D-06 MaxDP=4.50D-05 DE=-2.99D-08 OVMax= 0.00D+00

 Cycle  11  Pass 1  IDiag  1:
 E= -602.496068754549     Delta-E=       -0.000000007286 Rises=F Damp=F
 DIIS: error= 2.81D-06 at cycle  11 NSaved=  11.
 NSaved=11 IEnMin=11 EnMin= -602.496068754549     IErMin=11 ErrMin= 2.81D-06
 ErrMax= 2.81D-06 EMaxC= 1.00D-01 BMatC= 1.13D-09 BMatP= 6.52D-09
 IDIUse=1 WtCom= 1.00D+00 WtEn= 0.00D+00
 Coeff-Com:  0.135D-04-0.692D-04-0.708D-03 0.138D-02 0.513D-02-0.145D-01
 Coeff-Com: -0.200D-01 0.150D+00-0.193D-01-0.905D+00 0.180D+01
 Coeff:      0.135D-04-0.692D-04-0.708D-03 0.138D-02 0.513D-02-0.145D-01
 Coeff:     -0.200D-01 0.150D+00-0.193D-01-0.905D+00 0.180D+01
 Gap=     0.807 Goal=   None    Shift=    0.000
 Gap=     0.570 Goal=   None    Shift=    0.000
 RMSDP=1.19D-06 MaxDP=2.46D-05 DE=-7.29D-09 OVMax= 0.00D+00

 Cycle  12  Pass 1  IDiag  1:
 E= -602.496068756019     Delta-E=       -0.000000001470 Rises=F Damp=F
 DIIS: error= 5.72D-07 at cycle  12 NSaved=  12.
 NSaved=12 IEnMin=12 EnMin= -602.496068756019     IErMin=12 ErrMin= 5.72D-07
 ErrMax= 5.72D-07 EMaxC= 1.00D-01 BMatC= 8.26D-11 BMatP= 1.13D-09
 IDIUse=1 WtCom= 1.00D+00 WtEn= 0.00D+00
 Coeff-Com: -0.351D-06 0.230D-04 0.413D-04-0.221D-03-0.249D-03 0.244D-02
 Coeff-Com: -0.148D-02-0.151D-01 0.407D-01 0.237D-01-0.354D+00 0.130D+01
 Coeff:     -0.351D-06 0.230D-04 0.413D-04-0.221D-03-0.249D-03 0.244D-02
 Coeff:     -0.148D-02-0.151D-01 0.407D-01 0.237D-01-0.354D+00 0.130D+01
 Gap=     0.807 Goal=   None    Shift=    0.000
 Gap=     0.570 Goal=   None    Shift=    0.000
 RMSDP=2.79D-07 MaxDP=5.13D-06 DE=-1.47D-09 OVMax= 0.00D+00

 Cycle  13  Pass 1  IDiag  1:
 E= -602.496068756113     Delta-E=       -0.000000000094 Rises=F Damp=F
 DIIS: error= 1.80D-07 at cycle  13 NSaved=  13.
 NSaved=13 IEnMin=13 EnMin= -602.496068756113     IErMin=13 ErrMin= 1.80D-07
 ErrMax= 1.80D-07 EMaxC= 1.00D-01 BMatC= 9.48D-12 BMatP= 8.26D-11
 IDIUse=1 WtCom= 1.00D+00 WtEn= 0.00D+00
 Coeff-Com: -0.163D-05 0.343D-05 0.793D-04-0.125D-03-0.588D-03 0.131D-02
 Coeff-Com:  0.282D-02-0.156D-01-0.463D-02 0.104D+00-0.161D+00-0.200D+00
 Coeff-Com:  0.127D+01
 Coeff:     -0.163D-05 0.343D-05 0.793D-04-0.125D-03-0.588D-03 0.131D-02
 Coeff:      0.282D-02-0.156D-01-0.463D-02 0.104D+00-0.161D+00-0.200D+00
 Coeff:      0.127D+01
 Gap=     0.807 Goal=   None    Shift=    0.000
 Gap=     0.570 Goal=   None    Shift=    0.000
 RMSDP=8.62D-08 MaxDP=1.55D-06 DE=-9.39D-11 OVMax= 0.00D+00

 Cycle  14  Pass 1  IDiag  1:
 E= -602.496068756122     Delta-E=       -0.000000000008 Rises=F Damp=F
 DIIS: error= 5.09D-08 at cycle  14 NSaved=  14.
 NSaved=14 IEnMin=14 EnMin= -602.496068756122     IErMin=14 ErrMin= 5.09D-08
 ErrMax= 5.09D-08 EMaxC= 1.00D-01 BMatC= 1.28D-12 BMatP= 9.48D-12
 IDIUse=1 WtCom= 1.00D+00 WtEn= 0.00D+00
 Coeff-Com:  0.560D-06-0.323D-05-0.300D-04 0.576D-04 0.226D-03-0.657D-03
 Coeff-Com: -0.901D-03 0.692D-02-0.251D-02-0.373D-01 0.890D-01-0.614D-01
 Coeff-Com: -0.432D+00 0.144D+01
 Coeff:      0.560D-06-0.323D-05-0.300D-04 0.576D-04 0.226D-03-0.657D-03
 Coeff:     -0.901D-03 0.692D-02-0.251D-02-0.373D-01 0.890D-01-0.614D-01
 Coeff:     -0.432D+00 0.144D+01
 Gap=     0.807 Goal=   None    Shift=    0.000
 Gap=     0.570 Goal=   None    Shift=    0.000
 RMSDP=2.84D-08 MaxDP=5.78D-07 DE=-8.41D-12 OVMax= 0.00D+00

 Cycle  15  Pass 1  IDiag  1:
 E= -602.496068756124     Delta-E=       -0.000000000002 Rises=F Damp=F
 DIIS: error= 2.00D-08 at cycle  15 NSaved=  15.
 NSaved=15 IEnMin=15 EnMin= -602.496068756124     IErMin=15 ErrMin= 2.00D-08
 ErrMax= 2.00D-08 EMaxC= 1.00D-01 BMatC= 1.82D-13 BMatP= 1.28D-12
 IDIUse=1 WtCom= 1.00D+00 WtEn= 0.00D+00
 Coeff-Com:  0.201D-06-0.481D-06-0.960D-05 0.181D-04 0.540D-04-0.132D-03
 Coeff-Com: -0.260D-03 0.137D-02 0.113D-02-0.106D-01 0.112D-01 0.433D-01
 Coeff-Com: -0.123D+00-0.294D+00 0.137D+01
 Coeff:      0.201D-06-0.481D-06-0.960D-05 0.181D-04 0.540D-04-0.132D-03
 Coeff:     -0.260D-03 0.137D-02 0.113D-02-0.106D-01 0.112D-01 0.433D-01
 Coeff:     -0.123D+00-0.294D+00 0.137D+01
 Gap=     0.807 Goal=   None    Shift=    0.000
 Gap=     0.570 Goal=   None    Shift=    0.000
 RMSDP=1.19D-08 MaxDP=2.68D-07 DE=-2.05D-12 OVMax= 0.00D+00

 Cycle  16  Pass 1  IDiag  1:
 E= -602.496068756124     Delta-E=        0.000000000000 Rises=F Damp=F
 DIIS: error= 7.08D-09 at cycle  16 NSaved=  16.
 NSaved=16 IEnMin=16 EnMin= -602.496068756124     IErMin=16 ErrMin= 7.08D-09
 ErrMax= 7.08D-09 EMaxC= 1.00D-01 BMatC= 1.49D-14 BMatP= 1.82D-13
 IDIUse=1 WtCom= 1.00D+00 WtEn= 0.00D+00
 Coeff-Com: -0.115D-06 0.441D-06 0.587D-05-0.102D-04-0.411D-04 0.107D-03
 Coeff-Com:  0.189D-03-0.118D-02-0.221D-04 0.698D-02-0.129D-01-0.510D-02
 Coeff-Com:  0.810D-01-0.839D-01-0.359D+00 0.137D+01
 Coeff:     -0.115D-06 0.441D-06 0.587D-05-0.102D-04-0.411D-04 0.107D-03
 Coeff:      0.189D-03-0.118D-02-0.221D-04 0.698D-02-0.129D-01-0.510D-02
 Coeff:      0.810D-01-0.839D-01-0.359D+00 0.137D+01
 Gap=     0.807 Goal=   None    Shift=    0.000
 Gap=     0.570 Goal=   None    Shift=    0.000
 RMSDP=3.47D-09 MaxDP=6.93D-08 DE=-4.55D-13 OVMax= 0.00D+00

 SCF Done:  E(UHF) =  -602.496068756     A.U. after   16 cycles
             Convg  =    0.3472D-08             -V/T =  2.0045
 <Sx>= 0.0000 <Sy>= 0.0000 <Sz>= 0.5000 <S**2>= 0.7845 S= 0.5171
 <L.S>= 0.000000000000E+00
 KE= 5.997979437579D+02 PE=-2.680214972118D+03 EE= 8.536303483554D+02
 Annihilation of the first spin contaminant:
 S**2 before annihilation     0.7845,   after     0.7502
 Leave Link  502 at Tue Dec  3 18:55:47 2019, MaxMem=  805306368 cpu:       3.3
 (Enter /home/programs/G09_64/g09/l801.exe)
 Range of M.O.s used for correlation:     1    64
 NBasis=    64 NAE=    44 NBE=    43 NFC=     0 NFV=     0
 NROrb=     64 NOA=    44 NOB=    43 NVA=    20 NVB=    21
 Leave Link  801 at Tue Dec  3 18:55:47 2019, MaxMem=  805306368 cpu:       0.2
 (Enter /home/programs/G09_64/g09/l1101.exe)
 Using compressed storage, NAtomX=    28.
 Will process  29 centers per pass.
 Leave Link 1101 at Tue Dec  3 18:55:47 2019, MaxMem=  805306368 cpu:       0.8
 (Enter /home/programs/G09_64/g09/l1102.exe)
 Symmetrizing basis deriv contribution to polar:
 IMax=3 JMax=2 DiffMx= 0.00D+00
 Leave Link 1102 at Tue Dec  3 18:55:47 2019, MaxMem=  805306368 cpu:       0.3
 (Enter /home/programs/G09_64/g09/l1110.exe)
 Forming Gx(P) for the SCF density, NAtomX=    28.
 Integral derivatives from FoFDir/FoFCou, PRISM(SPDF).
 Do as many integral derivatives as possible in FoFDir.
 G2DrvN: MDV=     805306040.
 G2DrvN: will do    29 centers at a time, making    1 passes doing MaxLOS=1.
 Calling FoFCou, ICntrl=  3107 FMM=F I1Cent=   0 AccDes= 0.00D+00.
 FoFCou: FMM=F IPFlag=           0 FMFlag=      100000 FMFlg1=           0
         NFxFlg=           0 DoJE=F BraDBF=F KetDBF=F FulRan=T
         Omega=  0.000000  0.000000  1.000000  0.000000  0.000000 ICntrl=    3107 IOpCl=  1
         NMat0=    1 NMatS0=    1 NMatT0=    0 NMatD0=    1 NMtDS0=    0 NMtDT0=    0
         I1Cent=           0 NGrid=           0.
 Symmetry not used in FoFCou.
 FoFDir/FoFCou used for L=0 through L=1.
 End of G2Drv Frequency-dependent properties file   721 does not exist.
 End of G2Drv Frequency-dependent properties file   722 does not exist.
 Leave Link 1110 at Tue Dec  3 18:55:48 2019, MaxMem=  805306368 cpu:       2.3
 (Enter /home/programs/G09_64/g09/l1002.exe)
 Minotr:  UHF open shell wavefunction.
          IDoAtm=1111111111111111111111111111
          Direct CPHF calculation.
          Differentiating once with respect to nuclear coordinates.
          Requested convergence is 1.0D-06 RMS, and 1.0D-05 maximum.
          Secondary convergence is 1.0D-12 RMS, and 1.0D-12 maximum.
          NewPWx=T KeepS1=F KeepF1=F KeepIn=T MapXYZ=F SortEE=F KeepMc=T.
          MDV=     805306084 using IRadAn=       2.
          Keep R1 and R2 ints in memory in canonical form, NReq=5130004.
 Symmetry not used in FoFDir.
 MinBra= 0 MaxBra= 1 Meth= 1.
 IRaf=       0 NMat=   1 IRICut=       1 DoRegI=T DoRafI=F ISym2E= 0 JSym2E=0.
          Solving linear equations simultaneously, MaxMat=       0.
          There are    87 degrees of freedom in the 1st order CPHF.  IDoFFX=5.
     81 vectors produced by pass  0 Test12= 2.05D-11 1.15D-07 XBig12= 7.90D-02 9.57D-02.
 AX will form    81 AO Fock derivatives at one time.
     81 vectors produced by pass  1 Test12= 2.05D-11 1.15D-07 XBig12= 1.13D-03 6.57D-03.
     81 vectors produced by pass  2 Test12= 2.05D-11 1.15D-07 XBig12= 4.93D-06 4.62D-04.
     81 vectors produced by pass  3 Test12= 2.05D-11 1.15D-07 XBig12= 3.92D-08 3.25D-05.
     30 vectors produced by pass  4 Test12= 2.05D-11 1.15D-07 XBig12= 4.77D-10 3.01D-06.
      1 vectors produced by pass  5 Test12= 2.05D-11 1.15D-07 XBig12= 4.07D-12 2.92D-07.
 Inverted reduced A of dimension   355 with in-core refinement.
 End of Minotr Frequency-dependent properties file   721 does not exist.
 End of Minotr Frequency-dependent properties file   722 does not exist.
 Leave Link 1002 at Tue Dec  3 18:55:49 2019, MaxMem=  805306368 cpu:       7.5
 (Enter /home/programs/G09_64/g09/l601.exe)
 Copying SCF densities to generalized density rwf, IOpCl= 1 IROHF=0.

 **********************************************************************

            Population analysis using the SCF density.

 **********************************************************************

 Orbital symmetries:
 Alpha Orbitals:
       Occupied  (A) (A) (A) (A) (A) (A) (A) (A) (A) (A) (A) (A)
                 (A) (A) (A) (A) (A) (A) (A) (A) (A) (A) (A) (A)
                 (A) (A) (A) (A) (A) (A) (A) (A) (A) (A) (A) (A)
                 (A) (A) (A) (A) (A) (A) (A) (A)
       Virtual   (A) (A) (A) (A) (A) (A) (A) (A) (A) (A) (A) (A)
                 (A) (A) (A) (A) (A) (A) (A) (A)
 Beta  Orbitals:
       Occupied  (A) (A) (A) (A) (A) (A) (A) (A) (A) (A) (A) (A)
                 (A) (A) (A) (A) (A) (A) (A) (A) (A) (A) (A) (A)
                 (A) (A) (A) (A) (A) (A) (A) (A) (A) (A) (A) (A)
                 (A) (A) (A) (A) (A) (A) (A)
       Virtual   (A) (A) (A) (A) (A) (A) (A) (A) (A) (A) (A) (A)
                 (A) (A) (A) (A) (A) (A) (A) (A) (A)
 The electronic state is 2-A.
 Alpha  occ. eigenvalues --  -20.23223 -20.22091 -20.22059 -20.21663 -20.21369
 Alpha  occ. eigenvalues --  -20.20549 -20.20166 -11.08126 -11.04030  -1.31054
 Alpha  occ. eigenvalues --   -1.28493  -1.27548  -1.26723  -1.25028  -1.22285
 Alpha  occ. eigenvalues --   -1.21223  -0.96925  -0.80268  -0.66245  -0.65040
 Alpha  occ. eigenvalues --   -0.64494  -0.64256  -0.63017  -0.62816  -0.62436
 Alpha  occ. eigenvalues --   -0.60640  -0.53934  -0.52158  -0.51611  -0.51051
 Alpha  occ. eigenvalues --   -0.48925  -0.47257  -0.45907  -0.44488  -0.44049
 Alpha  occ. eigenvalues --   -0.41205  -0.38998  -0.36093  -0.35453  -0.35022
 Alpha  occ. eigenvalues --   -0.33884  -0.33640  -0.32155  -0.26445
 Alpha virt. eigenvalues --    0.54220   0.59491   0.61296   0.63127   0.63971
 Alpha virt. eigenvalues --    0.64767   0.66717   0.69208   0.71329   0.73753
 Alpha virt. eigenvalues --    0.75694   0.76849   0.79739   0.80068   0.80624
 Alpha virt. eigenvalues --    0.81499   0.82384   0.83528   0.84313   0.86251
  Beta  occ. eigenvalues --  -20.23225 -20.22091 -20.21958 -20.21657 -20.21369
  Beta  occ. eigenvalues --  -20.20549 -20.20169 -11.06382 -11.04163  -1.30899
  Beta  occ. eigenvalues --   -1.28199  -1.27361  -1.26697  -1.24815  -1.22286
  Beta  occ. eigenvalues --   -1.21166  -0.95485  -0.77010  -0.66145  -0.64613
  Beta  occ. eigenvalues --   -0.64433  -0.63244  -0.62823  -0.62395  -0.61522
  Beta  occ. eigenvalues --   -0.57695  -0.53681  -0.51442  -0.50976  -0.49201
  Beta  occ. eigenvalues --   -0.48183  -0.46646  -0.45306  -0.44415  -0.42651
  Beta  occ. eigenvalues --   -0.40499  -0.36090  -0.35495  -0.35114  -0.34345
  Beta  occ. eigenvalues --   -0.33641  -0.33438  -0.32116
  Beta virt. eigenvalues --    0.24873   0.54575   0.60348   0.61338   0.63334
  Beta virt. eigenvalues --    0.64116   0.66114   0.68424   0.69623   0.71475
  Beta virt. eigenvalues --    0.74558   0.76315   0.77497   0.79805   0.80185
  Beta virt. eigenvalues --    0.81458   0.82629   0.83703   0.84325   0.86252
  Beta virt. eigenvalues --    0.89501
          Condensed to atoms (all electrons):
              1          2          3          4          5          6
     1  O    7.928744   0.272711  -0.018004   0.230272   0.000537  -0.000549
     2  C    0.272711   4.875409   0.356847  -0.031477  -0.019079  -0.020789
     3  C   -0.018004   0.356847   4.742093   0.001824   0.383916   0.383829
     4  H    0.230272  -0.031477   0.001824   0.492971  -0.000051   0.000008
     5  H    0.000537  -0.019079   0.383916  -0.000051   0.614313  -0.020755
     6  H   -0.000549  -0.020789   0.383829   0.000008  -0.020755   0.615037
     7  H   -0.000466  -0.019883   0.381997   0.000003  -0.021275  -0.021978
     8  H   -0.016183   0.371667  -0.024139  -0.003907  -0.001643   0.001731
     9  H   -0.011382   0.223662  -0.016185  -0.001019  -0.001467  -0.001759
    10  H   -0.000084  -0.044732  -0.000502   0.000015   0.000140   0.000096
    11  O   -0.004425   0.000081   0.000000   0.000098   0.000000   0.000000
    12  H    0.015184  -0.001080  -0.000125  -0.002696   0.000000  -0.000001
    13  H    0.000336  -0.000009   0.000001   0.000008   0.000000   0.000001
    14  O   -0.000013   0.000000   0.000000   0.000001   0.000000  -0.000001
    15  H    0.000005   0.000000   0.000000   0.000000   0.000000   0.000002
    16  H    0.000166  -0.000004   0.000001  -0.000003   0.000000   0.000004
    17  O   -0.007178   0.000158  -0.000006   0.000303   0.000000  -0.000041
    18  H    0.000522  -0.000007   0.000001  -0.000043   0.000000   0.000001
    19  H    0.025288  -0.002352  -0.000230  -0.002777  -0.000001   0.000055
    20  O   -0.000003   0.000000   0.000000   0.000005   0.000000   0.000000
    21  H    0.000000   0.000000   0.000000   0.000000   0.000000   0.000000
    22  H    0.000003   0.000000   0.000000   0.000010   0.000000   0.000000
    23  O   -0.019955   0.000459  -0.000003   0.063741   0.000000   0.000000
    24  H    0.000540   0.000018   0.000000  -0.008704   0.000000   0.000000
    25  H    0.000931  -0.000027   0.000001  -0.007459   0.000000   0.000000
    26  O   -0.000041   0.000001   0.000000   0.000200   0.000000   0.000000
    27  H    0.000213  -0.000003   0.000000  -0.000052   0.000000   0.000000
    28  H    0.000003   0.000000   0.000000   0.000002   0.000000   0.000000
              7          8          9         10         11         12
     1  O   -0.000466  -0.016183  -0.011382  -0.000084  -0.004425   0.015184
     2  C   -0.019883   0.371667   0.223662  -0.044732   0.000081  -0.001080
     3  C    0.381997  -0.024139  -0.016185  -0.000502   0.000000  -0.000125
     4  H    0.000003  -0.003907  -0.001019   0.000015   0.000098  -0.002696
     5  H   -0.021275  -0.001643  -0.001467   0.000140   0.000000   0.000000
     6  H   -0.021978   0.001731  -0.001759   0.000096   0.000000  -0.000001
     7  H    0.621591  -0.001830   0.001133  -0.000015  -0.000010   0.000050
     8  H   -0.001830   0.647302  -0.018754  -0.000445   0.000001  -0.000049
     9  H    0.001133  -0.018754   0.643224   0.151525  -0.000001   0.000051
    10  H   -0.000015  -0.000445   0.151525   0.926178   0.000000  -0.000001
    11  O   -0.000010   0.000001  -0.000001   0.000000   7.917413   0.255905
    12  H    0.000050  -0.000049   0.000051  -0.000001   0.255905   0.568726
    13  H    0.000003   0.000000   0.000000   0.000000   0.220931  -0.031151
    14  O    0.000000   0.000000   0.000000   0.000000  -0.025358   0.001430
    15  H    0.000001   0.000000   0.000000   0.000000   0.001175  -0.000103
    16  H    0.000000   0.000000   0.000000   0.000000   0.000707  -0.000065
    17  O   -0.000001  -0.000004   0.000008   0.000000  -0.000051  -0.000020
    18  H    0.000000   0.000001   0.000000   0.000000   0.000013   0.000015
    19  H    0.000000   0.000155  -0.000159   0.000000  -0.000033  -0.000411
    20  O    0.000000   0.000000   0.000000   0.000000  -0.000006   0.000002
    21  H    0.000000   0.000000   0.000000   0.000000   0.000002   0.000000
    22  H    0.000000   0.000000   0.000000   0.000000   0.000182  -0.000001
    23  O    0.000000   0.000155   0.000021   0.000000  -0.000019   0.000030
    24  H    0.000000   0.000000   0.000001   0.000000   0.000187  -0.000063
    25  H    0.000000  -0.000011  -0.000001   0.000001   0.000002   0.000003
    26  O    0.000000   0.000000   0.000000   0.000000  -0.032577   0.001243
    27  H    0.000000   0.000000   0.000000   0.000000   0.115357  -0.015636
    28  H    0.000000   0.000000   0.000000   0.000000   0.001495   0.000005
             13         14         15         16         17         18
     1  O    0.000336  -0.000013   0.000005   0.000166  -0.007178   0.000522
     2  C   -0.000009   0.000000   0.000000  -0.000004   0.000158  -0.000007
     3  C    0.000001   0.000000   0.000000   0.000001  -0.000006   0.000001
     4  H    0.000008   0.000001   0.000000  -0.000003   0.000303  -0.000043
     5  H    0.000000   0.000000   0.000000   0.000000   0.000000   0.000000
     6  H    0.000001  -0.000001   0.000002   0.000004  -0.000041   0.000001
     7  H    0.000003   0.000000   0.000001   0.000000  -0.000001   0.000000
     8  H    0.000000   0.000000   0.000000   0.000000  -0.000004   0.000001
     9  H    0.000000   0.000000   0.000000   0.000000   0.000008   0.000000
    10  H    0.000000   0.000000   0.000000   0.000000   0.000000   0.000000
    11  O    0.220931  -0.025358   0.001175   0.000707  -0.000051   0.000013
    12  H   -0.031151   0.001430  -0.000103  -0.000065  -0.000020   0.000015
    13  H    0.479298   0.080109  -0.009359  -0.008815   0.000359   0.000005
    14  O    0.080109   7.928752   0.256173   0.219104  -0.025761   0.000816
    15  H   -0.009359   0.256173   0.623560  -0.031616   0.001337   0.000006
    16  H   -0.008815   0.219104  -0.031616   0.485976   0.080926  -0.009491
    17  O    0.000359  -0.025761   0.001337   0.080926   7.915439   0.246208
    18  H    0.000005   0.000816   0.000006  -0.009491   0.246208   0.515701
    19  H   -0.000005   0.001015  -0.000057  -0.010289   0.253703  -0.034924
    20  O    0.000007  -0.000009   0.000001   0.000234  -0.013686   0.043307
    21  H   -0.000001   0.000005   0.000000  -0.000021   0.000665  -0.005403
    22  H   -0.000021   0.000005   0.000000  -0.000003   0.000585  -0.005319
    23  O    0.000002   0.000000   0.000000   0.000000  -0.000001   0.000004
    24  H    0.000006   0.000000   0.000000   0.000000   0.000000   0.000007
    25  H    0.000000   0.000000   0.000000   0.000000   0.000001   0.000000
    26  O    0.000928  -0.000007   0.000001   0.000003  -0.000007   0.000113
    27  H   -0.009945   0.000387  -0.000002  -0.000007   0.000012  -0.000004
    28  H   -0.000035   0.000001   0.000000   0.000000   0.000001  -0.000002
             19         20         21         22         23         24
     1  O    0.025288  -0.000003   0.000000   0.000003  -0.019955   0.000540
     2  C   -0.002352   0.000000   0.000000   0.000000   0.000459   0.000018
     3  C   -0.000230   0.000000   0.000000   0.000000  -0.000003   0.000000
     4  H   -0.002777   0.000005   0.000000   0.000010   0.063741  -0.008704
     5  H   -0.000001   0.000000   0.000000   0.000000   0.000000   0.000000
     6  H    0.000055   0.000000   0.000000   0.000000   0.000000   0.000000
     7  H    0.000000   0.000000   0.000000   0.000000   0.000000   0.000000
     8  H    0.000155   0.000000   0.000000   0.000000   0.000155   0.000000
     9  H   -0.000159   0.000000   0.000000   0.000000   0.000021   0.000001
    10  H    0.000000   0.000000   0.000000   0.000000   0.000000   0.000000
    11  O   -0.000033  -0.000006   0.000002   0.000182  -0.000019   0.000187
    12  H   -0.000411   0.000002   0.000000  -0.000001   0.000030  -0.000063
    13  H   -0.000005   0.000007  -0.000001  -0.000021   0.000002   0.000006
    14  O    0.001015  -0.000009   0.000005   0.000005   0.000000   0.000000
    15  H   -0.000057   0.000001   0.000000   0.000000   0.000000   0.000000
    16  H   -0.010289   0.000234  -0.000021  -0.000003   0.000000   0.000000
    17  O    0.253703  -0.013686   0.000665   0.000585  -0.000001   0.000000
    18  H   -0.034924   0.043307  -0.005403  -0.005319   0.000004   0.000007
    19  H    0.548000   0.000860  -0.000007  -0.000069   0.000070   0.000003
    20  O    0.000860   7.899610   0.256912   0.243473  -0.000010  -0.000050
    21  H   -0.000007   0.256912   0.621951  -0.037540   0.000001   0.000007
    22  H   -0.000069   0.243473  -0.037540   0.515864  -0.000042  -0.001555
    23  O    0.000070  -0.000010   0.000001  -0.000042   7.896289   0.236746
    24  H    0.000003  -0.000050   0.000007  -0.001555   0.236746   0.499981
    25  H   -0.000006   0.000011  -0.000001   0.000015   0.257384  -0.035436
    26  O    0.000004  -0.014384   0.000892   0.045118  -0.018525   0.056327
    27  H    0.000016   0.000378  -0.000018  -0.003594   0.000345  -0.005219
    28  H    0.000000   0.000683  -0.000095  -0.004322   0.000793  -0.005662
             25         26         27         28
     1  O    0.000931  -0.000041   0.000213   0.000003
     2  C   -0.000027   0.000001  -0.000003   0.000000
     3  C    0.000001   0.000000   0.000000   0.000000
     4  H   -0.007459   0.000200  -0.000052   0.000002
     5  H    0.000000   0.000000   0.000000   0.000000
     6  H    0.000000   0.000000   0.000000   0.000000
     7  H    0.000000   0.000000   0.000000   0.000000
     8  H   -0.000011   0.000000   0.000000   0.000000
     9  H   -0.000001   0.000000   0.000000   0.000000
    10  H    0.000001   0.000000   0.000000   0.000000
    11  O    0.000002  -0.032577   0.115357   0.001495
    12  H    0.000003   0.001243  -0.015636   0.000005
    13  H    0.000000   0.000928  -0.009945  -0.000035
    14  O    0.000000  -0.000007   0.000387   0.000001
    15  H    0.000000   0.000001  -0.000002   0.000000
    16  H    0.000000   0.000003  -0.000007   0.000000
    17  O    0.000001  -0.000007   0.000012   0.000001
    18  H    0.000000   0.000113  -0.000004  -0.000002
    19  H   -0.000006   0.000004   0.000016   0.000000
    20  O    0.000011  -0.014384   0.000378   0.000683
    21  H   -0.000001   0.000892  -0.000018  -0.000095
    22  H    0.000015   0.045118  -0.003594  -0.004322
    23  O    0.257384  -0.018525   0.000345   0.000793
    24  H   -0.035436   0.056327  -0.005219  -0.005662
    25  H    0.613876   0.001071   0.000011  -0.000053
    26  O    0.001071   7.975780   0.191209   0.256474
    27  H    0.000011   0.191209   0.463620  -0.025197
    28  H   -0.000053   0.256474  -0.025197   0.610647
 Mulliken atomic charges:
              1
     1  O   -0.397174
     2  C    0.038429
     3  C   -0.191315
     4  H    0.268728
     5  H    0.065364
     6  H    0.065108
     7  H    0.060679
     8  H    0.045953
     9  H    0.031103
    10  H   -0.032176
    11  O   -0.451070
    12  H    0.208757
    13  H    0.277347
    14  O   -0.436651
    15  H    0.158879
    16  H    0.273193
    17  O   -0.452951
    18  H    0.248473
    19  H    0.222152
    20  O   -0.417334
    21  H    0.162652
    22  H    0.247212
    23  O   -0.417485
    24  H    0.262867
    25  H    0.169688
    26  O   -0.463820
    27  H    0.288130
    28  H    0.165262
 Sum of Mulliken atomic charges =   0.00000
 Mulliken charges with hydrogens summed into heavy atoms:
              1
     1  O   -0.128446
     2  C    0.083308
     3  C   -0.000163
    11  O    0.035034
    14  O   -0.004579
    17  O    0.017675
    20  O   -0.007470
    23  O    0.015070
    26  O   -0.010429
 Sum of Mulliken charges with hydrogens summed into heavy atoms =   0.00000
          Atomic-Atomic Spin Densities.
              1          2          3          4          5          6
     1  O    0.043304  -0.029007   0.000397   0.000055   0.000008   0.000072
     2  C   -0.029007   0.672707  -0.012991  -0.001642  -0.001327  -0.001749
     3  C    0.000397  -0.012991  -0.048521   0.000022   0.001595   0.001757
     4  H    0.000055  -0.001642   0.000022  -0.000569   0.000001   0.000004
     5  H    0.000008  -0.001327   0.001595   0.000001   0.004476   0.000099
     6  H    0.000072  -0.001749   0.001757   0.000004   0.000099   0.006356
     7  H    0.000179  -0.003223   0.000558  -0.000012  -0.000989  -0.001283
     8  H    0.000504  -0.012661   0.001921   0.000210   0.000219   0.000069
     9  H    0.001064   0.031422   0.002647   0.000046  -0.000018   0.000050
    10  H    0.001351  -0.059002   0.001580   0.000163   0.000262   0.000313
    11  O   -0.000105   0.000022   0.000001   0.000014   0.000000   0.000000
    12  H    0.000393  -0.000212  -0.000015  -0.000030  -0.000001  -0.000006
    13  H    0.000006  -0.000002   0.000000  -0.000001   0.000000   0.000000
    14  O    0.000000   0.000000   0.000000   0.000000   0.000000   0.000000
    15  H    0.000000   0.000000   0.000000   0.000000   0.000000   0.000000
    16  H   -0.000001   0.000000   0.000000   0.000000   0.000000   0.000000
    17  O    0.000026   0.000019  -0.000001   0.000002   0.000000  -0.000004
    18  H   -0.000002  -0.000001   0.000000   0.000000   0.000000   0.000000
    19  H   -0.000160  -0.000238   0.000019   0.000009   0.000000   0.000018
    20  O    0.000000   0.000000   0.000000   0.000000   0.000000   0.000000
    21  H    0.000000   0.000000   0.000000   0.000000   0.000000   0.000000
    22  H    0.000000   0.000000   0.000000   0.000000   0.000000   0.000000
    23  O   -0.000006   0.000049   0.000000   0.000279   0.000000   0.000000
    24  H   -0.000002   0.000000   0.000000  -0.000007   0.000000   0.000000
    25  H    0.000001  -0.000003   0.000000  -0.000015   0.000000   0.000000
    26  O    0.000000   0.000000   0.000000   0.000002   0.000000   0.000000
    27  H    0.000004   0.000000   0.000000  -0.000002   0.000000   0.000000
    28  H    0.000000   0.000000   0.000000   0.000000   0.000000   0.000000
              7          8          9         10         11         12
     1  O    0.000179   0.000504   0.001064   0.001351  -0.000105   0.000393
     2  C   -0.003223  -0.012661   0.031422  -0.059002   0.000022  -0.000212
     3  C    0.000558   0.001921   0.002647   0.001580   0.000001  -0.000015
     4  H   -0.000012   0.000210   0.000046   0.000163   0.000014  -0.000030
     5  H   -0.000989   0.000219  -0.000018   0.000262   0.000000  -0.000001
     6  H   -0.001283   0.000069   0.000050   0.000313   0.000000  -0.000006
     7  H    0.024232  -0.000540  -0.000068  -0.000096  -0.000006   0.000054
     8  H   -0.000540  -0.023817   0.003375   0.002180   0.000002  -0.000031
     9  H   -0.000068   0.003375  -0.255235  -0.027099   0.000000  -0.000006
    10  H   -0.000096   0.002180  -0.027099   0.776039   0.000000  -0.000003
    11  O   -0.000006   0.000002   0.000000   0.000000   0.002387  -0.000238
    12  H    0.000054  -0.000031  -0.000006  -0.000003  -0.000238  -0.000848
    13  H    0.000001   0.000000   0.000000   0.000000  -0.000058   0.000035
    14  O    0.000000   0.000000   0.000000   0.000000   0.000001  -0.000002
    15  H    0.000000   0.000000   0.000000   0.000000   0.000000   0.000000
    16  H    0.000000   0.000000   0.000000   0.000000   0.000000   0.000000
    17  O    0.000000   0.000000   0.000000  -0.000002   0.000000   0.000001
    18  H    0.000000   0.000000   0.000000   0.000000   0.000000   0.000000
    19  H   -0.000007   0.000003   0.000023   0.000028   0.000002   0.000000
    20  O    0.000000   0.000000   0.000000   0.000000   0.000000   0.000000
    21  H    0.000000   0.000000   0.000000   0.000000   0.000000   0.000000
    22  H    0.000000   0.000000   0.000000   0.000000   0.000000   0.000000
    23  O    0.000000  -0.000006   0.000002  -0.000006   0.000000   0.000003
    24  H    0.000000   0.000000   0.000000   0.000000   0.000000   0.000000
    25  H    0.000000   0.000000   0.000000   0.000001   0.000000   0.000000
    26  O    0.000000   0.000000   0.000000   0.000000   0.000003  -0.000002
    27  H    0.000000   0.000000   0.000000   0.000000  -0.000043   0.000022
    28  H    0.000000   0.000000   0.000000   0.000000   0.000000   0.000000
             13         14         15         16         17         18
     1  O    0.000006   0.000000   0.000000  -0.000001   0.000026  -0.000002
     2  C   -0.000002   0.000000   0.000000   0.000000   0.000019  -0.000001
     3  C    0.000000   0.000000   0.000000   0.000000  -0.000001   0.000000
     4  H   -0.000001   0.000000   0.000000   0.000000   0.000002   0.000000
     5  H    0.000000   0.000000   0.000000   0.000000   0.000000   0.000000
     6  H    0.000000   0.000000   0.000000   0.000000  -0.000004   0.000000
     7  H    0.000001   0.000000   0.000000   0.000000   0.000000   0.000000
     8  H    0.000000   0.000000   0.000000   0.000000   0.000000   0.000000
     9  H    0.000000   0.000000   0.000000   0.000000   0.000000   0.000000
    10  H    0.000000   0.000000   0.000000   0.000000  -0.000002   0.000000
    11  O   -0.000058   0.000001   0.000000   0.000000   0.000000   0.000000
    12  H    0.000035  -0.000002   0.000000   0.000000   0.000001   0.000000
    13  H   -0.000059   0.000014  -0.000001  -0.000001   0.000001   0.000000
    14  O    0.000014  -0.000013   0.000001  -0.000002  -0.000001   0.000000
    15  H   -0.000001   0.000001  -0.000001   0.000000   0.000000   0.000000
    16  H   -0.000001  -0.000002   0.000000   0.000002   0.000010  -0.000001
    17  O    0.000001  -0.000001   0.000000   0.000010  -0.000840   0.000018
    18  H    0.000000   0.000000   0.000000  -0.000001   0.000018   0.000026
    19  H   -0.000001   0.000001   0.000000  -0.000005   0.000101  -0.000010
    20  O    0.000000   0.000000   0.000000   0.000000   0.000000  -0.000004
    21  H    0.000000   0.000000   0.000000   0.000000   0.000000   0.000000
    22  H    0.000000   0.000000   0.000000   0.000000   0.000000   0.000000
    23  O    0.000000   0.000000   0.000000   0.000000   0.000000   0.000000
    24  H    0.000000   0.000000   0.000000   0.000000   0.000000   0.000000
    25  H    0.000000   0.000000   0.000000   0.000000   0.000000   0.000000
    26  O    0.000000   0.000000   0.000000   0.000000   0.000000   0.000000
    27  H    0.000003   0.000000   0.000000   0.000000   0.000000   0.000000
    28  H    0.000000   0.000000   0.000000   0.000000   0.000000   0.000000
             19         20         21         22         23         24
     1  O   -0.000160   0.000000   0.000000   0.000000  -0.000006  -0.000002
     2  C   -0.000238   0.000000   0.000000   0.000000   0.000049   0.000000
     3  C    0.000019   0.000000   0.000000   0.000000   0.000000   0.000000
     4  H    0.000009   0.000000   0.000000   0.000000   0.000279  -0.000007
     5  H    0.000000   0.000000   0.000000   0.000000   0.000000   0.000000
     6  H    0.000018   0.000000   0.000000   0.000000   0.000000   0.000000
     7  H   -0.000007   0.000000   0.000000   0.000000   0.000000   0.000000
     8  H    0.000003   0.000000   0.000000   0.000000  -0.000006   0.000000
     9  H    0.000023   0.000000   0.000000   0.000000   0.000002   0.000000
    10  H    0.000028   0.000000   0.000000   0.000000  -0.000006   0.000000
    11  O    0.000002   0.000000   0.000000   0.000000   0.000000   0.000000
    12  H    0.000000   0.000000   0.000000   0.000000   0.000003   0.000000
    13  H   -0.000001   0.000000   0.000000   0.000000   0.000000   0.000000
    14  O    0.000001   0.000000   0.000000   0.000000   0.000000   0.000000
    15  H    0.000000   0.000000   0.000000   0.000000   0.000000   0.000000
    16  H   -0.000005   0.000000   0.000000   0.000000   0.000000   0.000000
    17  O    0.000101   0.000000   0.000000   0.000000   0.000000   0.000000
    18  H   -0.000010  -0.000004   0.000000   0.000000   0.000000   0.000000
    19  H    0.000347   0.000000   0.000000   0.000000   0.000001   0.000000
    20  O    0.000000   0.000006   0.000000   0.000000   0.000000   0.000000
    21  H    0.000000   0.000000   0.000000   0.000000   0.000000   0.000000
    22  H    0.000000   0.000000   0.000000   0.000000   0.000000   0.000000
    23  O    0.000001   0.000000   0.000000   0.000000  -0.000765   0.000017
    24  H    0.000000   0.000000   0.000000   0.000000   0.000017   0.000014
    25  H    0.000000   0.000000   0.000000   0.000000   0.000018  -0.000004
    26  O    0.000000   0.000000   0.000000   0.000000  -0.000001  -0.000002
    27  H    0.000000   0.000000   0.000000   0.000000   0.000001   0.000000
    28  H    0.000000   0.000000   0.000000   0.000000   0.000000   0.000000
             25         26         27         28
     1  O    0.000001   0.000000   0.000004   0.000000
     2  C   -0.000003   0.000000   0.000000   0.000000
     3  C    0.000000   0.000000   0.000000   0.000000
     4  H   -0.000015   0.000002  -0.000002   0.000000
     5  H    0.000000   0.000000   0.000000   0.000000
     6  H    0.000000   0.000000   0.000000   0.000000
     7  H    0.000000   0.000000   0.000000   0.000000
     8  H    0.000000   0.000000   0.000000   0.000000
     9  H    0.000000   0.000000   0.000000   0.000000
    10  H    0.000001   0.000000   0.000000   0.000000
    11  O    0.000000   0.000003  -0.000043   0.000000
    12  H    0.000000  -0.000002   0.000022   0.000000
    13  H    0.000000   0.000000   0.000003   0.000000
    14  O    0.000000   0.000000   0.000000   0.000000
    15  H    0.000000   0.000000   0.000000   0.000000
    16  H    0.000000   0.000000   0.000000   0.000000
    17  O    0.000000   0.000000   0.000000   0.000000
    18  H    0.000000   0.000000   0.000000   0.000000
    19  H    0.000000   0.000000   0.000000   0.000000
    20  O    0.000000   0.000000   0.000000   0.000000
    21  H    0.000000   0.000000   0.000000   0.000000
    22  H    0.000000   0.000000   0.000000   0.000000
    23  O    0.000018  -0.000001   0.000001   0.000000
    24  H   -0.000004  -0.000002   0.000000   0.000000
    25  H    0.000009   0.000000   0.000000   0.000000
    26  O    0.000000  -0.000024   0.000017   0.000001
    27  H    0.000000   0.000017  -0.000025  -0.000001
    28  H    0.000000   0.000001  -0.000001  -0.000001
 Mulliken atomic spin densities:
              1
     1  O    0.018080
     2  C    0.582160
     3  C   -0.051032
     4  H   -0.001471
     5  H    0.004325
     6  H    0.005697
     7  H    0.018802
     8  H   -0.028572
     9  H   -0.243799
    10  H    0.695709
    11  O    0.001982
    12  H   -0.000885
    13  H   -0.000062
    14  O   -0.000001
    15  H   -0.000001
    16  H    0.000002
    17  O   -0.000670
    18  H    0.000026
    19  H    0.000132
    20  O    0.000003
    21  H    0.000000
    22  H    0.000000
    23  O   -0.000414
    24  H    0.000015
    25  H    0.000007
    26  O   -0.000007
    27  H   -0.000026
    28  H   -0.000001
 Sum of Mulliken atomic spin densities =   1.00000
 APT atomic charges:
              1
     1  O   -0.779736
     2  C   -0.437221
     3  C   -1.097917
     4  H    0.424976
     5  H    0.774705
     6  H    0.192507
     7  H    0.241681
     8  H    0.459192
     9  H   -0.015855
[...]
 ,-0.00008147,-0.00030564,0.00002953,-0.00026054,0.00039353,-0.00021168
 ,-0.00007834,0.00004603,0.00006519,0.00081042,-0.00052318,-0.00153306,
 -0.00130008,0.00015184,0.00409940,0.00481336,0.00047290,0.00058041,-0.
 00047464,-0.00033158,-0.04623862,0.00140933,-0.06594791,-0.01198145,0.
 03769398,0.06522820,0.00140078,0.00067798,0.00063389,-0.00078641,0.000
 03472,-0.00031914,0.00015608,-0.00005188,0.00001816,-0.00181868,-0.000
 64034,0.00005551,0.00002859,0.00006192,0.00000123,-0.00000326,0.000000
 87,-0.00002347,-0.00001731,-0.00000056,0.00001923,0.00014342,0.0000100
 8,0.00003500,0.00014627,-0.00011202,0.00032124,-0.00001336,0.00004345,
 -0.00011818,0.00161503,0.00190976,-0.00154136,-0.00076218,0.00001880,0
 .00026357,-0.00000265,-0.00190096,-0.00032549,-0.00028134,0.00100829,0
 .00084935,0.00021081,0.00005553,0.00000863,-0.00026289,-0.00036812,-0.
 00078989,-0.00245057,-0.00054355,0.00285947,0.00854101,0.00054863,-0.0
 0977685,-0.00094207,-0.00080710,-0.00089741,-0.08261049,0.00383275,-0.
 05883597,-0.00179796,0.02391818,0.05592297,0.10462126,-0.00056855,-0.0
 0246036,-0.00197440,0.00038895,-0.00015569,0.00015878,-0.00010721,0.00
 003253,0.00001890,0.00315205,0.00321548,0.00038759,0.00000609,-0.00007
 071,-0.00001615,-0.00006450,-0.00004243,-0.00001268,-0.00000789,-0.000
 00163,0.00000523,0.00002641,-0.00004735,-0.00005103,-0.00005754,0.0000
 5126,-0.00010478,0.00000706,-0.00003403,0.00002766,-0.00607852,-0.0079
 8542,0.00120526,0.00033554,0.00005647,0.00058983,-0.00112492,0.0034548
 7,0.00305597,0.00030853,-0.00125558,-0.00318030,0.00037948,0.00026777,
 -0.00012325,-0.00049463,-0.00258115,0.00268538,0.00444060,0.00246661,-
 0.00073107,-0.01121508,-0.00551875,-0.00559383,-0.00174707,0.00200627,
 0.00127229,0.03876401,-0.09743042,-0.11958343,-0.00447811,-0.01183868,
 -0.04191881,-0.02629986,0.13138365,-0.00180066,-0.00231465,-0.00489028
 ,0.00106106,-0.00024156,0.00069430,-0.00020165,0.00004147,-0.00001666,
 0.00347450,0.00338059,0.00141881,-0.00002097,-0.00008418,-0.00004266,-
 0.00007189,-0.00006703,0.00001605,0.00005622,0.00005210,-0.00003093,-0
 .00002372,-0.00005052,-0.00010811,-0.00024045,0.00021616,-0.00055144,0
 .00005096,-0.00008398,0.00016843,-0.01493618,-0.01630194,0.00514883,0.
 00196037,-0.00096135,0.00163238,-0.00073303,0.00859844,0.00526723,0.00
 034952,-0.00334182,-0.00669832,-0.00017263,0.00000988,-0.00023999,0.00
 062393,-0.00429925,0.00649632,0.00854398,0.00633060,-0.00510192,-0.021
 45570,-0.00928399,-0.00015248,-0.00206228,0.00254594,0.00284528,0.0170
 7239,-0.17759259,-0.47849841,-0.01799014,0.02022706,0.00702200,0.01332
 215,0.15748539,0.47401048,-0.04217498,-0.06021892,-0.00067994,0.019245
 92,-0.00834881,0.00289769,-0.00466979,0.00119764,-0.00034144,-0.011449
 55,0.01425810,-0.01569864,-0.00037638,-0.00154513,0.00017665,-0.000012
 92,0.00011007,0.00017811,-0.00005551,-0.00012981,-0.00010403,-0.001505
 84,0.00017723,-0.00022941,-0.00146244,0.00102124,-0.00290938,0.0001330
 3,-0.00036234,0.00105320,0.01121058,0.00864917,-0.00312431,-0.00523041
 ,0.00307573,-0.00512562,-0.00015161,-0.00257393,-0.00150015,0.00045208
 ,0.00078510,0.00192588,0.00016205,0.00043232,0.00005870,-0.00094666,0.
 00132367,-0.00185548,0.00394684,-0.00151902,0.00007135,-0.00431429,-0.
 00229858,-0.00055923,-0.00560642,0.00491038,0.00467719,0.00262553,0.00
 313109,0.00324180,0.00001357,-0.00001181,0.00003839,0.00175924,-0.0045
 6468,-0.00933865,0.54001997,-0.06295552,-0.04388525,-0.00327612,0.0185
 4430,-0.01226318,0.00369493,-0.00572154,0.00160318,-0.00047149,0.02468
 052,-0.02223289,-0.00326604,-0.00049222,-0.00175980,0.00018303,0.00011
 111,0.00025513,0.00021607,0.00008551,0.00002996,-0.00016240,-0.0019821
 3,0.00007697,-0.00007836,-0.00188042,0.00120626,-0.00378958,0.00022694
 ,-0.00032075,0.00133767,0.00028232,-0.00161776,0.00166691,-0.00282963,
 0.00199317,-0.00439784,-0.00035089,0.00193395,0.00052381,0.00080965,-0
 .00166244,0.00006038,-0.00028005,0.00021047,-0.00004175,-0.00064605,0.
 00164148,-0.00113596,0.00229499,-0.00155078,-0.00099000,-0.00224013,-0
 .00112261,0.00056476,-0.00386002,0.00429592,0.00473942,0.00206722,0.00
 153089,-0.00119742,-0.00008222,-0.00026947,0.00019341,-0.00128385,0.00
 003467,0.00296358,-0.10754444,0.33078876,-0.00572764,-0.00575448,0.015
 71965,0.00398681,-0.00124255,0.00094225,-0.00097649,0.00024301,-0.0001
 0999,0.00797858,0.01505959,-0.04271619,-0.00007721,-0.00035289,0.00003
 032,0.00000803,0.00003670,0.00004901,-0.00003896,-0.00008891,-0.000019
 78,-0.00054803,-0.00009208,-0.00008276,-0.00024644,0.00026687,-0.00062
 836,-0.00001427,-0.00010705,0.00026723,0.00353804,0.00331882,-0.000556
 76,-0.00123088,0.00060650,-0.00166724,0.00003552,-0.00126889,-0.001003
 64,0.00018503,0.00032498,0.00128118,0.00002171,0.00010724,0.00003110,-
 0.00039586,0.00111930,-0.00136481,0.00101020,-0.00104782,0.00066560,-0
 .00143510,-0.00014825,-0.00000795,-0.00079547,0.00179279,0.00082724,0.
 00089718,0.00084044,0.00124074,0.00035617,-0.00028708,0.00004895,-0.00
 023701,-0.00104878,-0.00403593,-0.04131127,-0.29621414,0.68029435,0.00
 979648,0.01312455,-0.00079340,-0.00414339,0.00174240,-0.00069725,0.001
 22072,-0.00032298,0.00005806,-0.03258780,-0.01880993,-0.00348454,0.000
 09211,0.00050697,-0.00006638,0.00005684,0.00001883,-0.00003267,0.00009
 591,0.00012284,-0.00000008,0.00044991,0.00006656,0.00013860,0.00038037
 ,-0.00024978,0.00070919,0.00000785,0.00014384,-0.00028165,-0.01703268,
 -0.01404180,0.00624665,0.00246625,-0.00377217,0.00307799,-0.00019785,0
 .00412758,0.00235396,-0.00012818,-0.00167358,-0.00250200,-0.00032259,-
 0.00032606,-0.00011155,0.00076993,-0.00121650,0.00200855,-0.00270551,0
 .00124403,-0.00117226,0.00425192,0.00127874,0.00062211,0.00199776,-0.0
 0281867,-0.00151875,-0.00216521,-0.00328147,-0.00602156,-0.00063088,0.
 00026582,-0.00007378,-0.00291326,0.00861818,0.01817860,-0.32166912,0.1
 7440245,-0.12116794,0.33587355,-0.00555400,-0.01405690,0.00236169,0.00
 254144,-0.00119028,0.00003234,-0.00072205,0.00012562,-0.00001867,0.008
 72750,0.03201288,-0.00603352,-0.00002381,-0.00032190,0.00005310,-0.000
 08363,-0.00004885,-0.00000410,-0.00012003,-0.00012486,0.00003100,-0.00
 002277,-0.00002276,-0.00010643,0.00001091,0.00001625,0.00005910,-0.000
 04009,-0.00006986,0.00000374,0.01337667,0.01350148,-0.00595193,-0.0039
 8466,0.00160630,-0.00185671,0.00036948,-0.00551428,-0.00263858,-0.0002
 9632,0.00280023,0.00273270,0.00046597,0.00028888,0.00013185,-0.0005378
 2,0.00031755,-0.00159655,0.00225051,-0.00062985,0.00149470,-0.00281421
 ,-0.00117263,-0.00122463,-0.00227322,0.00190414,0.00061087,0.00068740,
 0.00196054,0.00587769,0.00039018,0.00014978,-0.00004294,0.00469249,-0.
 00682059,-0.01640688,0.13080221,-0.15661050,0.09442252,-0.13102650,0.1
 6870149,0.00614805,0.00850335,-0.00231683,-0.00260149,0.00110121,-0.00
 014708,0.00077972,-0.00020342,0.00001996,-0.01780683,-0.01748853,0.002
 30487,0.00006069,0.00031251,-0.00004978,0.00001474,-0.00001556,-0.0000
 2654,0.00007123,0.00010944,-0.00000140,0.00030365,0.00001658,0.0000548
 2,0.00017185,-0.00011051,0.00028067,0.00002223,0.00007150,-0.00013883,
 -0.00753989,-0.00842343,0.00211054,0.00225753,-0.00095124,0.00231701,-
 0.00035988,0.00344329,0.00224787,0.00000111,-0.00151007,-0.00254382,-0
 .00016260,-0.00014759,-0.00008498,0.00050204,-0.00141773,0.00209490,-0
 .00108193,0.00144988,-0.00134278,0.00122079,-0.00023498,0.00025106,0.0
 0067595,-0.00153822,-0.00045851,-0.00038000,-0.00049685,-0.00299483,-0
 .00082296,0.00050319,-0.00005136,0.00156172,-0.00064187,0.00950668,-0.
 03746986,0.07000769,-0.11576417,0.08732564,-0.07803767,0.15704212,-0.0
 0412600,-0.00372154,-0.00326345,0.00162482,-0.00102898,0.00085652,-0.0
 0046925,0.00012969,-0.00011996,0.00705781,0.00827066,0.01563833,-0.000
 04469,-0.00013292,0.00001346,0.00000465,-0.00000269,0.00001454,0.00002
 916,0.00006063,-0.00001761,-0.00012995,0.00004850,-0.00005149,-0.00024
 597,0.00015459,-0.00054967,0.00007647,-0.00001585,0.00016111,0.0003646
 6,-0.00001081,-0.00020453,-0.00013780,0.00041339,-0.00017307,-0.000002
 38,0.00027260,0.00017433,0.00002097,-0.00013140,-0.00021413,-0.0000192
 8,0.00000450,-0.00000003,0.00002633,-0.00009006,0.00018973,-0.00007694
 ,0.00006985,-0.00036112,0.00035703,0.00002893,0.00011051,-0.00024447,0
 .00003331,0.00050691,-0.00028891,-0.00033486,0.00001422,0.00003810,-0.
 00001741,0.00000572,-0.00000766,0.00043273,-0.00034884,-0.12677224,-0.
 06885150,0.18610784,0.02106640,0.01466948,-0.04909051,0.10864409,-0.00
 078614,-0.00118800,-0.00288131,-0.00018197,-0.00027201,0.00006273,-0.0
 0001400,-0.00000033,-0.00001618,0.00006463,-0.00062990,0.01273312,0.00
 000987,0.00000282,-0.00000252,-0.00002131,-0.00002913,-0.00000554,0.00
 000427,0.00002152,0.00000035,0.00011296,0.00001555,-0.00003497,0.00001
 335,-0.00002503,0.00007862,0.00002187,0.00000718,-0.00005523,0.0002528
 2,-0.00001056,-0.00043302,-0.00008349,0.00014086,0.00020662,-0.0000304
 1,0.00010074,0.00028155,-0.00010730,0.00015456,-0.00049177,0.00005692,
 0.00001311,-0.00000582,0.00012618,-0.00070278,0.00073466,0.00007984,0.
 00067467,-0.00052567,0.00001514,-0.00058820,-0.00009106,-0.00051642,-0
 .00028378,0.00034709,-0.00009444,0.00034934,0.00006105,-0.00039626,0.0
 0037023,-0.00013055,0.00073841,-0.00055751,0.00079870,-0.02792274,-0.0
 8480529,0.16606648,-0.01756107,-0.00624027,0.02848473,0.04506377,0.094
 21028,-0.00179665,-0.00246245,0.00067068,-0.00054094,-0.00016046,-0.00
 035600,0.00000872,-0.00000441,0.00003163,-0.00035631,-0.00163007,0.001
 80627,-0.00000064,0.00001499,0.00000138,0.00000479,0.00001465,-0.00000
 687,-0.00000748,-0.00001342,0.00000731,0.00004249,0.00000818,0.0000427
 2,0.00009246,-0.00007005,0.00023037,-0.00001437,0.00002301,-0.00007604
 ,-0.00037978,0.00030172,0.00027880,-0.00014645,-0.00045884,-0.00004855
 ,0.00006589,-0.00052784,-0.00031914,-0.00009032,0.00033714,0.00030968,
 0.00002784,-0.00001670,0.00000837,0.00002322,0.00002204,-0.00014160,-0
 .00015340,-0.00004182,0.00017899,0.00034117,0.00018038,-0.00003353,0.0
 0014690,-0.00016511,-0.00022941,-0.00031967,-0.00034205,0.00016393,0.0
 0008057,-0.00000768,-0.00003793,0.00005205,0.00033764,-0.00044359,0.12
 307575,0.21391066,-0.53814072,0.02901387,-0.00441712,-0.01781172,-0.14
 896988,-0.20351331,0.55194772,-0.00678369,-0.00432642,-0.00551516,0.00
 375209,-0.00069094,0.00113033,-0.00069410,0.00012332,-0.00003058,0.010
 36865,0.01166895,0.00114888,-0.00010679,-0.00023901,-0.00003632,-0.000
 02029,-0.00001925,0.00006947,0.00010001,0.00003870,-0.00008041,-0.0003
 1678,-0.00003938,-0.00014144,-0.00052911,0.00043084,-0.00116674,0.0000
 5143,-0.00016743,0.00041425,-0.04905587,-0.07259979,0.02921524,0.00632
 851,-0.00342561,0.00405820,-0.00704579,0.01626002,0.01217195,0.0021519
 1,-0.00829756,-0.00886385,-0.00008451,0.00038457,-0.00035491,-0.000438
 29,-0.00231902,0.00421103,0.00344937,0.00238452,-0.00324962,-0.0092406
 6,-0.00378383,0.00017959,-0.00161992,0.00194256,0.00228686,0.01457416,
 0.00858918,0.01254477,0.00151165,-0.00168453,-0.00097638,-0.02570596,-
 0.00937637,-0.01936122,-0.03448262,0.03304319,-0.02421756,-0.02700166,
 -0.00523598,0.00912421,-0.00576420,0.00179589,-0.00125847,0.60930351,0
 .00253204,0.01427646,-0.00557267,-0.00154635,0.00097853,0.00016968,0.0
 0065913,-0.00018216,0.00003248,-0.01957993,-0.02408384,0.00048401,-0.0
 0003215,0.00038325,-0.00010269,0.00013225,0.00008307,0.00004796,0.0002
 4513,0.00019983,-0.00009748,0.00004094,0.00007028,0.00013765,-0.000140
 77,0.00011849,-0.00040275,0.00006498,0.00004997,0.00011319,-0.07954100
 ,-0.05450369,0.03195104,0.00580281,-0.01026119,0.00753525,-0.00301991,
 0.01952788,0.01120735,0.00135131,-0.00851185,-0.00874434,-0.00096541,-
 0.00036905,-0.00044145,0.00093643,-0.00204518,0.00470603,-0.00336267,0
 .00216274,-0.00340677,0.00477991,0.00127851,0.00140920,0.00230089,-0.0
 0298567,-0.00066358,0.00224647,0.00201607,-0.01993004,-0.00230390,0.00
 020267,-0.00000243,-0.00246087,-0.01998615,0.00321453,0.05843187,-0.01
 352697,0.02846784,-0.03130124,-0.01681406,-0.02630616,0.00481032,-0.00
 084851,-0.00112509,0.23837657,0.31997626,0.00081126,-0.00385739,0.0080
 8501,-0.00067425,-0.00019652,-0.00094473,-0.00008161,0.00006039,0.0000
 0694,0.00550930,0.00678307,-0.00207586,0.00003779,-0.00008158,0.000095
 16,0.00002107,0.00003862,-0.00003449,-0.00017683,-0.00016054,0.0000760
 0,-0.00000857,0.00002651,0.00006740,0.00033245,-0.00030440,0.00083372,
 -0.00008450,0.00007838,-0.00024979,0.05157574,0.05387040,0.00381966,-0
 .00418030,0.00609854,-0.00663422,0.00565049,-0.01817875,-0.01347643,-0
 .00152858,0.00876476,0.01199358,0.00036339,-0.00007142,0.00045101,-0.0
 0059109,0.00529060,-0.00828320,-0.00460579,-0.00566739,0.00626191,0.01
 577730,0.00755622,-0.00060775,0.00121381,-0.00125009,-0.00239487,0.000
 53395,-0.02806830,-0.04534226,-0.00215454,-0.00076947,-0.00541293,0.00
 292462,0.00405569,-0.00803878,-0.02518555,0.01594318,0.00138276,-0.002
 62835,0.00342228,-0.02642432,-0.00057745,-0.00164294,0.00230352,0.2372
 5745,0.00677616,0.52410248,0.00619651,-0.00882348,0.01379503,-0.003001
 17,-0.00043009,-0.00156547,0.00012798,0.00001464,0.00000730,0.00851715
 ,0.01119246,-0.00250986,0.00015721,-0.00008039,0.00014628,-0.00008843,
 -0.00003638,-0.00012968,-0.00035942,-0.00023877,0.00018942,0.00035259,
 0.00000995,0.00005770,0.00086315,-0.00067898,0.00193730,-0.00013620,0.
 00017364,-0.00065318,-0.05555059,0.03751991,-0.00721098,-0.02804779,-0
 .00506960,-0.00048398,0.01755674,-0.03983609,-0.02787536,-0.00465974,0
 .02240785,0.02282592,0.00084330,-0.00016656,0.00109668,-0.00001499,0.0
 0551224,-0.01074079,-0.00161551,-0.00548754,0.00760771,0.00844838,0.00
 421768,-0.00058533,0.00022071,0.00017228,-0.00263926,-0.00535371,-0.00
 736208,-0.00964352,-0.00016782,0.00033351,-0.00008138,-0.00261996,0.01
 033224,0.02876656,-0.01829217,0.00166018,-0.00627112,0.03485139,-0.017
 75265,0.01044427,-0.00072190,-0.00031098,0.00094103,-0.12741308,-0.040
 77169,-0.01559680,0.17944578,0.00472200,-0.01092090,0.01274293,-0.0020
 1162,-0.00036091,-0.00106925,-0.00006360,0.00009181,-0.00003227,0.0112
 8148,0.01133302,-0.00033804,0.00013662,-0.00018831,0.00015369,-0.00011
 054,-0.00006495,-0.00011814,-0.00035405,-0.00024290,0.00018911,0.00019
 895,-0.00003647,-0.00002434,0.00063933,-0.00052415,0.00146850,-0.00011
 264,0.00010664,-0.00049181,0.01385849,-0.04491293,-0.00386154,0.001444
 95,0.02363036,-0.01290736,-0.00774884,-0.04266464,-0.01222848,-0.00239
 962,0.01695927,0.01738216,0.00134923,0.00039685,0.00104510,-0.00083169
 ,0.00501468,-0.01020444,-0.00049074,-0.00536982,0.00733372,0.00633770,
 0.00375400,-0.00102755,-0.00039635,0.00113658,-0.00173496,-0.00462890,
 -0.00794213,-0.00865370,0.00049047,0.00024299,-0.00068214,0.00000754,0
 .01461362,0.02397231,-0.01643344,0.00164790,-0.00656878,0.02148678,-0.
 02823427,0.01950827,-0.00064186,0.00003293,-0.00028160,-0.07855171,-0.
 12047093,0.01881011,0.04612671,0.17938365,-0.00136551,0.00471166,-0.00
 753421,0.00082266,0.00003182,0.00063960,0.00009055,-0.00009976,0.00002
 256,-0.00565056,-0.00426001,0.00078093,-0.00003959,0.00011073,-0.00009
 136,0.00000896,-0.00000121,0.00002735,0.00017181,0.00015466,-0.0000757
 2,0.00006300,0.00000048,-0.00001094,-0.00024534,0.00023806,-0.00064860
 ,0.00005946,-0.00005022,0.00019739,0.01485254,0.00277388,-0.05606492,-
 0.00853165,-0.01493361,0.01013250,-0.01585168,0.01344657,0.01719363,0.
 00219622,-0.01060523,-0.01264311,-0.00004606,0.00027425,-0.00046917,-0
 .00007450,-0.00452953,0.00565293,0.00102065,0.00350527,-0.00307645,-0.
 00347816,-0.00201564,-0.00096282,-0.00115658,-0.00003100,0.00057788,0.
 00142704,0.00176726,0.00443002,-0.00001511,0.00016863,-0.00016777,0.00
 471945,0.00075919,-0.01240277,0.00789838,-0.00201421,0.00237068,-0.010
 52346,0.01266974,-0.00613791,0.00035801,0.00038628,-0.00016517,0.06045
 147,0.07619937,-0.12404591,-0.01593877,-0.04563453,0.16531433,-0.00079
 420,-0.00011407,0.00003396,0.00036852,-0.00003731,0.00003746,-0.000089
 51,0.00003662,0.00000007,0.00108605,0.00028912,-0.00007275,-0.00001731
 ,-0.00003187,0.00000269,0.00001236,0.00001137,0.00001405,0.00000477,-0
 .00001204,-0.00001163,-0.00008542,-0.00000040,-0.00000100,-0.00006669,
 0.00003861,-0.00011420,0.00000105,-0.00001278,0.00004790,-0.00110219,-
 0.00235786,0.00459900,0.00102696,-0.00002733,-0.00036265,0.00000708,0.
 00097124,0.00001545,0.00011341,-0.00037818,-0.00001008,-0.00009926,-0.
 00003841,-0.00003197,0.00001494,0.00033308,-0.00007180,-0.00001224,-0.
 00016881,-0.00016524,-0.00031150,-0.00001824,0.00029747,0.00025224,0.0
 0005222,0.00014274,-0.00046633,0.00165964,0.00418022,0.00009470,0.0000
 7311,0.00031294,0.00437352,-0.00100693,-0.00470221,-0.00039587,0.00279
 224,0.00056611,-0.00187926,-0.00849649,-0.00336948,-0.00025886,-0.0003
 2941,0.00011762,-0.35528796,-0.13768516,-0.26393442,-0.00953840,0.0066
 9533,-0.03122321,0.36304941,0.00007392,0.00040272,-0.00023883,-0.00003
 176,0.00009221,0.00002776,0.00002845,-0.00000593,0.,-0.00084942,-0.000
 98156,0.00010131,-0.00000165,0.00000857,-0.00000262,0.00000187,-0.0000
 0069,0.00000121,0.00000463,0.00000536,-0.00000336,-0.00000611,-0.00000
 308,-0.00000247,-0.00001383,0.00000730,-0.00002660,0.00000196,-0.00000
 310,0.00000810,-0.00351716,-0.00532013,0.00508614,0.00103629,-0.000064
 31,0.00016792,-0.00062523,0.00133809,0.00046344,0.00027328,-0.00072163
 ,-0.00037379,0.00001092,0.00003852,-0.00002745,-0.00009982,0.00021595,
 -0.00003897,-0.00003717,-0.00013523,-0.00002035,0.00010690,0.00013979,
 0.00010632,0.00011344,-0.00005416,0.00005372,0.00075135,-0.00017273,-0
 .00076312,0.00007929,-0.00020027,-0.00043487,-0.00309028,-0.00079674,0
 .00119300,0.00516782,-0.00562101,0.00154864,-0.00074782,0.01448673,0.0
 0401219,0.00051691,0.00008748,0.00008761,-0.12428148,-0.08673475,-0.07
 732610,-0.01262801,0.00358902,-0.03302285,0.13776270,0.08040358,-0.000
 60010,-0.00033862,0.00037016,0.00037400,-0.00003364,0.00010900,-0.0000
 8333,0.00002521,-0.00001230,0.00114152,0.00045460,-0.00000012,-0.00001
 293,-0.00003299,0.00000775,0.00001012,0.00000776,0.00000800,-0.0000015
 2,-0.00000595,-0.00000330,-0.00007608,-0.00000059,-0.00000944,-0.00005
 321,0.00003670,-0.00011719,0.00000061,-0.00001483,0.00004720,0.0063687
 5,0.00610932,-0.00396546,-0.00001841,0.00050240,-0.00048071,0.00019088
 ,-0.00055039,-0.00067583,0.00009969,0.00005745,0.00064643,-0.00004420,
 0.00000200,0.00003188,-0.00010074,0.00075950,-0.00069604,-0.00036677,-
 0.00063351,0.00026292,0.00105290,0.00073649,0.00038674,0.00035303,-0.0
 0002784,-0.00000234,0.00242222,-0.00123354,-0.00303399,-0.00002795,-0.
 00082600,-0.00090929,-0.01070346,0.00293558,0.00702549,0.00013986,0.00
 102981,0.00094725,0.00134240,-0.00556760,-0.00193567,-0.00020949,-0.00
 041209,-0.00017110,-0.30901106,-0.10565630,-0.31551361,0.01411028,0.00
 325301,0.01715704,0.29370297,0.09942405,0.30052656\\0.00000019,0.00000
 040,0.00000084,-0.00000022,-0.00000009,-0.00000076,-0.00000004,0.00000
 002,0.00000005,0.00000020,0.00000006,0.00000019,0.,-0.00000001,0.,-0.0
 0000004,0.00000002,0.00000001,0.,0.,0.,0.00000004,-0.00000007,0.000000
 09,0.00000012,-0.00000009,0.00000019,-0.00000007,0.00000005,-0.0000001
 2,-0.00000064,0.00000024,0.00000057,-0.00000025,0.00000010,-0.00000009
 ,0.00000041,0.00000001,0.,0.00000007,-0.00000009,0.,0.,0.00000002,0.,-
 0.00000038,-0.00000006,0.00000011,0.00000093,0.00000096,-0.00000037,-0
 .00000001,-0.00000018,0.00000005,-0.00000090,-0.00000090,0.00000011,-0
 .00000002,-0.00000030,0.00000053,0.,-0.00000004,-0.00000001,0.00000002
 ,0.00000057,-0.00000057,-0.00000005,0.00000012,-0.00000045,0.00000013,
 -0.00000010,0.00000020,-0.00000008,0.,-0.00000003,0.00000023,0.0000008
 8,0.00000014,0.00000037,-0.00000146,-0.00000068,0.,-0.00000006,0.\\\@


 BETTER TO HUNT IN FIELDS, FOR HEALTH UNBOUGHT
 THAN FEE THE DOCTOR FOR A NAUSEOUS DRAUGHT.
 THE WISE, FOR CURE, ON EXERCISE DEPEND;
 GOD NEVER MADE HIS WORK FOR MAN TO MEND.
     -- JOHN DRYDEN (1631-1700)
 Job cpu time:  0 days  0 hours  0 minutes 46.6 seconds.
 File lengths (MBytes):  RWF=     38 Int=      0 D2E=      0 Chk=      3 Scr=      1
 Normal termination of Gaussian 09 at Tue Dec  3 18:56:48 2019.
