 Entering Gaussian System, Link 0=/home/programs/G09_64/g09/g09
 Initial command:
 /home/programs/G09_64/g09/l1.exe /scratch/Gau-19750.inp -scrdir=/scratch/
 Entering Link 1 = /home/programs/G09_64/g09/l1.exe PID=     19754.
  
 Copyright (c) 1988,1990,1992,1993,1995,1998,2003,2009,2010,
            Gaussian, Inc.  All Rights Reserved.
  
 This is part of the Gaussian(R) 09 program.  It is based on
 the Gaussian(R) 03 system (copyright 2003, Gaussian, Inc.),
 the Gaussian(R) 98 system (copyright 1998, Gaussian, Inc.),
 the Gaussian(R) 94 system (copyright 1995, Gaussian, Inc.),
 the Gaussian 92(TM) system (copyright 1992, Gaussian, Inc.),
 the Gaussian 90(TM) system (copyright 1990, Gaussian, Inc.),
 the Gaussian 88(TM) system (copyright 1988, Gaussian, Inc.),
 the Gaussian 86(TM) system (copyright 1986, Carnegie Mellon
 University), and the Gaussian 82(TM) system (copyright 1983,
 Carnegie Mellon University). Gaussian is a federally registered
 trademark of Gaussian, Inc.
  
 This software contains proprietary and confidential information,
 including trade secrets, belonging to Gaussian, Inc.
  
 This software is provided under written license and may be
 used, copied, transmitted, or stored only in accord with that
 written license.
  
 The following legend is applicable only to US Government
 contracts under FAR:
  
                    RESTRICTED RIGHTS LEGEND
  
 Use, reproduction and disclosure by the US Government is
 subject to restrictions as set forth in subparagraphs (a)
 and (c) of the Commercial Computer Software - Restricted
 Rights clause in FAR 52.227-19.
  
 Gaussian, Inc.
 340 Quinnipiac St., Bldg. 40, Wallingford CT 06492
  
  
 ---------------------------------------------------------------
 Warning -- This program may not be used in any manner that
 competes with the business of Gaussian, Inc. or will provide
 assistance to any competitor of Gaussian, Inc.  The licensee
 of this program is prohibited from giving any competitor of
 Gaussian, Inc. access to this program.  By using this program,
 the user acknowledges that Gaussian, Inc. is engaged in the
 business of creating and licensing software in the field of
 computational chemistry and represents and warrants to the
 licensee that it is not a competitor of Gaussian, Inc. and that
 it will not use this program in any manner prohibited above.
 ---------------------------------------------------------------
  

 Cite this work as:
 Gaussian 09, Revision B.01,
 M. J. Frisch, G. W. Trucks, H. B. Schlegel, G. E. Scuseria, 
 M. A. Robb, J. R. Cheeseman, G. Scalmani, V. Barone, B. Mennucci, 
 G. A. Petersson, H. Nakatsuji, M. Caricato, X. Li, H. P. Hratchian, 
 A. F. Izmaylov, J. Bloino, G. Zheng, J. L. Sonnenberg, M. Hada, 
 M. Ehara, K. Toyota, R. Fukuda, J. Hasegawa, M. Ishida, T. Nakajima, 
 Y. Honda, O. Kitao, H. Nakai, T. Vreven, J. A. Montgomery, Jr., 
 J. E. Peralta, F. Ogliaro, M. Bearpark, J. J. Heyd, E. Brothers, 
 K. N. Kudin, V. N. Staroverov, T. Keith, R. Kobayashi, J. Normand, 
 K. Raghavachari, A. Rendell, J. C. Burant, S. S. Iyengar, J. Tomasi, 
 M. Cossi, N. Rega, J. M. Millam, M. Klene, J. E. Knox, J. B. Cross, 
 V. Bakken, C. Adamo, J. Jaramillo, R. Gomperts, R. E. Stratmann, 
 O. Yazyev, A. J. Austin, R. Cammi, C. Pomelli, J. W. Ochterski, 
 R. L. Martin, K. Morokuma, V. G. Zakrzewski, G. A. Voth, 
 P. Salvador, J. J. Dannenberg, S. Dapprich, A. D. Daniels, 
 O. Farkas, J. B. Foresman, J. V. Ortiz, J. Cioslowski, 
 and D. J. Fox, Gaussian, Inc., Wallingford CT, 2010.
 
 ******************************************
 Gaussian 09:  AM64L-G09RevB.01 12-Aug-2010
                 3-Dec-2019 
 ******************************************
 %nproc=8
 Will use up to    8 processors via shared memory.
 %mem=6GB
 ----------------------------------------------------------------------
 #p ONIOM(hf/3-21g:hf/sto-3g) opt=(tight,ts,calcfc,noeigentest) freq=no
 raman
 ----------------------------------------------------------------------
 1/5=1,7=10,10=4,11=1,18=20,38=1,52=2/1,3;
 2/9=110,12=2,17=6,18=5,40=1/2;
 1/5=1,7=10,10=4,11=1,18=20,38=1,52=2,53=3172/20;
 3/6=3,11=9,16=1,25=1,30=1,71=2/1,2,3;
 4//1;
 5/5=2,38=5/2;
 8/6=4,10=90,11=11/1;
 11/6=1,8=1,9=11,15=111,16=1/1,2,10;
 10/6=1,7=6,13=1/2;
 6/7=2,8=2,9=2,10=2,28=1/1;
 7/7=1,10=1,18=20,25=1,33=-1/1,2,3,16;
 1/5=1,7=10,10=4,11=1,18=20,52=2,53=2032/20;
 3/5=5,11=9,16=1,25=1,30=1,71=2/1,2,3;
 4//1;
 5/5=2,38=5/2;
 8/6=4,10=90,11=11/1;
 11/6=1,8=1,9=11,15=111,16=1/1,2,10;
 10/6=1,7=6,13=1/2;
 6/7=2,8=2,9=2,10=2,28=1/1;
 7/7=1,10=1,18=20,25=1,33=-1/1,2,3,16;
 1/5=1,7=10,10=4,11=1,18=20,52=2,53=1022/20;
 3/6=3,11=9,16=1,25=1,30=1,71=2/1,2,3;
 4//1;
 5/5=2,38=5/2;
 8/6=4,10=90,11=11/1;
 11/6=1,8=1,9=11,15=111,16=1/1,2,10;
 10/6=1,7=6,13=1/2;
 6/7=2,8=2,9=2,10=2,28=1/1;
 7/7=1,10=1,18=20,25=1,33=-1/1,2,3,16;
 1/5=1,7=10,10=4,11=1,18=20,52=2,53=3016/20;
 7/9=1,25=1,44=-1/16;
 1/5=1,7=10,10=4,11=1,18=20,52=2/3(2);
 2/9=110/2;
 99//99;
 2/9=110/2;
 1/5=1,7=10,11=1,18=20,52=2,53=3173/20;
 3/6=3,11=9,16=1,25=1,30=1,71=1/1,2,3;
 4/5=5,16=3/1;
 5/5=2,38=5/2;
 7/7=1,33=-1/1,2,3,16;
 1/5=1,7=10,11=1,18=20,52=2,53=2033/20;
 3/5=5,11=9,16=1,25=1,30=1,71=1/1,2,3;
 4/5=5,16=3/1;
 5/5=2,38=5/2;
 7/7=1,33=-1/1,2,3,16;
 1/5=1,7=10,11=1,18=20,52=2,53=1023/20;
 3/6=3,11=9,16=1,25=1,30=1,71=1/1,2,3;
 4/5=5,16=3/1;
 5/5=2,38=5/2;
 7/7=1,33=-1/1,2,3,16;
 1/5=1,7=10,11=1,18=20,52=2,53=3015/20;
 7/9=1,44=-1/16;
 1/5=1,7=10,11=1,18=20,52=2/3(-18);
 2/9=110/2;
 99//99;
 Leave Link    1 at Tue Dec  3 19:02:02 2019, MaxMem=  805306368 cpu:       0.3
 (Enter /home/programs/G09_64/g09/l101.exe)
 ------------------------------
 Transition State, g2 conformer
 ------------------------------
 Symbolic Z-matrix:
 Charge =  0 Multiplicity = 2 for low   level calculation on real  system.
 Charge =  0 Multiplicity = 2 for high  level calculation on model system.
 Charge =  0 Multiplicity = 2 for low   level calculation on model system.
 O                     1.07021  -0.69215   0.01581  H 
 C                     2.45937  -0.83337   0.058    H 
 C                     2.90713  -1.74989   1.17984  H 
 H                     0.46616  -1.51948   0.01297  H 
 H                     3.98174  -1.87683   1.15786  H 
 H                     2.43715  -2.71923   1.07605  H 
 H                     2.62555  -1.3341    2.14171  H 
 H                     2.99556   0.10687   0.03128  H 
 H                     2.87506  -1.4282   -1.05532  H 
 H                     3.13527  -1.89296  -1.87017  H 
 O                    -0.45408   0.54482  -1.7626   L 
 H                     0.31869   0.11478  -1.32254  L 
 H                    -0.49278   1.47587  -1.30274  L 
 O                    -0.48992   2.52912  -0.44683  L 
 H                     0.29483   3.10409  -0.57914  L 
 H                    -0.31122   2.03855   0.45504  L 
 O                    -0.11245   1.15205   1.45562  L 
 H                    -1.00997   0.73042   1.5999   L 
 H                     0.4217    0.42435   1.04357  L 
 O                    -2.38611   0.07911   1.46185  L 
 H                    -3.09982   0.7552    1.47461  L 
 H                    -2.41948  -0.27346   0.52001  L 
 O                    -0.54206  -2.45176  -0.09036  L 
 H                    -1.30662  -1.87529  -0.44977  L 
 H                    -0.85345  -2.73414   0.79733  L 
 O                    -2.1243   -0.79437  -0.86072  L 
 H                    -1.40181  -0.13757  -1.35958  L 
 H                    -2.83809  -1.00357  -1.49774  L 
 
 NAtoms=     28 NQM=     28 NQMF=      0 NMic=      0 NMicF=      0 NTot=     28.
                    Isotopes and Nuclear Properties:
 (Nuclear quadrupole moments (NQMom) in fm**2, nuclear magnetic moments (NMagM)
  in nuclear magnetons)

  Atom         1           2           3           4           5           6           7           8           9          10
 IAtWgt=          16          12          12           1           1           1           1           1           1           1
 AtmWgt=  15.9949146  12.0000000  12.0000000   1.0078250   1.0078250   1.0078250   1.0078250   1.0078250   1.0078250   1.0078250
 NucSpn=           0           0           0           1           1           1           1           1           1           1
 AtZEff=   0.0000000   0.0000000   0.0000000   0.0000000   0.0000000   0.0000000   0.0000000   0.0000000   0.0000000   0.0000000
 NQMom=    0.0000000   0.0000000   0.0000000   0.0000000   0.0000000   0.0000000   0.0000000   0.0000000   0.0000000   0.0000000
 NMagM=    0.0000000   0.0000000   0.0000000   2.7928460   2.7928460   2.7928460   2.7928460   2.7928460   2.7928460   2.7928460

  Atom        11          12          13          14          15          16          17          18          19          20
 IAtWgt=          16           1           1          16           1           1          16           1           1          16
 AtmWgt=  15.9949146   1.0078250   1.0078250  15.9949146   1.0078250   1.0078250  15.9949146   1.0078250   1.0078250  15.9949146
 NucSpn=           0           1           1           0           1           1           0           1           1           0
 AtZEff=   0.0000000   0.0000000   0.0000000   0.0000000   0.0000000   0.0000000   0.0000000   0.0000000   0.0000000   0.0000000
 NQMom=    0.0000000   0.0000000   0.0000000   0.0000000   0.0000000   0.0000000   0.0000000   0.0000000   0.0000000   0.0000000
 NMagM=    0.0000000   2.7928460   2.7928460   0.0000000   2.7928460   2.7928460   0.0000000   2.7928460   2.7928460   0.0000000

  Atom        21          22          23          24          25          26          27          28
 IAtWgt=           1           1          16           1           1          16           1           1
 AtmWgt=   1.0078250   1.0078250  15.9949146   1.0078250   1.0078250  15.9949146   1.0078250   1.0078250
 NucSpn=           1           1           0           1           1           0           1           1
 AtZEff=   0.0000000   0.0000000   0.0000000   0.0000000   0.0000000   0.0000000   0.0000000   0.0000000
 NQMom=    0.0000000   0.0000000   0.0000000   0.0000000   0.0000000   0.0000000   0.0000000   0.0000000
 NMagM=    2.7928460   2.7928460   0.0000000   2.7928460   2.7928460   0.0000000   2.7928460   2.7928460
 Leave Link  101 at Tue Dec  3 19:02:02 2019, MaxMem=  805306368 cpu:       0.9
 (Enter /home/programs/G09_64/g09/l103.exe)

 GradGradGradGradGradGradGradGradGradGradGradGradGradGradGradGradGradGrad
 Berny optimization.
 Initialization pass.
                           ----------------------------
                           !    Initial Parameters    !
                           ! (Angstroms and Degrees)  !
 --------------------------                            --------------------------
 ! Name  Definition              Value          Derivative Info.                !
 --------------------------------------------------------------------------------
 ! R1    R(1,2)                  1.397          calculate D2E/DX2 analytically  !
 ! R2    R(1,4)                  1.0244         calculate D2E/DX2 analytically  !
 ! R3    R(1,12)                 1.7341         calculate D2E/DX2 analytically  !
 ! R4    R(1,19)                 1.6503         calculate D2E/DX2 analytically  !
 ! R5    R(2,3)                  1.5162         calculate D2E/DX2 analytically  !
 ! R6    R(2,8)                  1.0827         calculate D2E/DX2 analytically  !
 ! R7    R(2,9)                  1.3289         calculate D2E/DX2 analytically  !
 ! R8    R(3,5)                  1.0823         calculate D2E/DX2 analytically  !
 ! R9    R(3,6)                  1.0822         calculate D2E/DX2 analytically  !
 ! R10   R(3,7)                  1.0851         calculate D2E/DX2 analytically  !
 ! R11   R(4,23)                 1.3771         calculate D2E/DX2 analytically  !
 ! R12   R(9,10)                 0.9735         calculate D2E/DX2 analytically  !
 ! R13   R(11,12)                0.9878         calculate D2E/DX2 analytically  !
 ! R14   R(11,13)                1.0391         calculate D2E/DX2 analytically  !
 ! R15   R(11,27)                1.2354         calculate D2E/DX2 analytically  !
 ! R16   R(13,14)                1.3572         calculate D2E/DX2 analytically  !
 ! R17   R(14,15)                0.9818         calculate D2E/DX2 analytically  !
 ! R18   R(14,16)                1.0421         calculate D2E/DX2 analytically  !
 ! R19   R(16,17)                1.3515         calculate D2E/DX2 analytically  !
 ! R20   R(17,18)                1.0021         calculate D2E/DX2 analytically  !
 ! R21   R(17,19)                0.9923         calculate D2E/DX2 analytically  !
 ! R22   R(18,20)                1.5287         calculate D2E/DX2 analytically  !
 ! R23   R(20,21)                0.9832         calculate D2E/DX2 analytically  !
 ! R24   R(20,22)                1.0062         calculate D2E/DX2 analytically  !
 ! R25   R(22,26)                1.505          calculate D2E/DX2 analytically  !
 ! R26   R(23,24)                1.0228         calculate D2E/DX2 analytically  !
 ! R27   R(23,25)                0.9822         calculate D2E/DX2 analytically  !
 ! R28   R(24,26)                1.4163         calculate D2E/DX2 analytically  !
 ! R29   R(26,27)                1.0965         calculate D2E/DX2 analytically  !
 ! R30   R(26,28)                0.9793         calculate D2E/DX2 analytically  !
 ! A1    A(2,1,4)              120.3188         calculate D2E/DX2 analytically  !
 ! A2    A(2,1,12)             120.0872         calculate D2E/DX2 analytically  !
 ! A3    A(2,1,19)             116.1268         calculate D2E/DX2 analytically  !
 ! A4    A(4,1,12)              96.7842         calculate D2E/DX2 analytically  !
 ! A5    A(4,1,19)             108.4461         calculate D2E/DX2 analytically  !
 ! A6    A(12,1,19)             89.744          calculate D2E/DX2 analytically  !
 ! A7    A(1,2,3)              112.1553         calculate D2E/DX2 analytically  !
 ! A8    A(1,2,8)              113.8237         calculate D2E/DX2 analytically  !
 ! A9    A(1,2,9)              109.3291         calculate D2E/DX2 analytically  !
 ! A10   A(3,2,8)              113.387          calculate D2E/DX2 analytically  !
 ! A11   A(3,2,9)              104.8866         calculate D2E/DX2 analytically  !
 ! A12   A(8,2,9)              102.3049         calculate D2E/DX2 analytically  !
 ! A13   A(2,3,5)              110.4308         calculate D2E/DX2 analytically  !
 ! A14   A(2,3,6)              110.0114         calculate D2E/DX2 analytically  !
 ! A15   A(2,3,7)              110.3414         calculate D2E/DX2 analytically  !
 ! A16   A(5,3,6)              108.9155         calculate D2E/DX2 analytically  !
 ! A17   A(5,3,7)              108.6995         calculate D2E/DX2 analytically  !
 ! A18   A(6,3,7)              108.3932         calculate D2E/DX2 analytically  !
 ! A19   A(1,4,23)             168.1548         calculate D2E/DX2 analytically  !
 ! A20   A(12,11,13)           102.8296         calculate D2E/DX2 analytically  !
 ! A21   A(12,11,27)           102.3768         calculate D2E/DX2 analytically  !
 ! A22   A(13,11,27)           108.7814         calculate D2E/DX2 analytically  !
 ! A23   A(1,12,11)            152.3058         calculate D2E/DX2 analytically  !
 ! A24   A(11,13,14)           166.9929         calculate D2E/DX2 analytically  !
 ! A25   A(13,14,15)           111.7881         calculate D2E/DX2 analytically  !
 ! A26   A(13,14,16)           100.4176         calculate D2E/DX2 analytically  !
 ! A27   A(15,14,16)           104.7884         calculate D2E/DX2 analytically  !
 ! A28   A(14,16,17)           167.0924         calculate D2E/DX2 analytically  !
 ! A29   A(16,17,18)           104.5286         calculate D2E/DX2 analytically  !
 ! A30   A(16,17,19)           104.6415         calculate D2E/DX2 analytically  !
 ! A31   A(18,17,19)           103.4951         calculate D2E/DX2 analytically  !
 ! A32   A(17,18,20)           166.5395         calculate D2E/DX2 analytically  !
 ! A33   A(1,19,17)            165.081          calculate D2E/DX2 analytically  !
 ! A34   A(18,20,21)           111.0582         calculate D2E/DX2 analytically  !
 ! A35   A(18,20,22)           105.2873         calculate D2E/DX2 analytically  !
 ! A36   A(21,20,22)           103.2397         calculate D2E/DX2 analytically  !
 ! A37   A(20,22,26)           166.7879         calculate D2E/DX2 analytically  !
 ! A38   A(4,23,24)            101.075          calculate D2E/DX2 analytically  !
 ! A39   A(4,23,25)            111.0354         calculate D2E/DX2 analytically  !
 ! A40   A(24,23,25)           104.0431         calculate D2E/DX2 analytically  !
 ! A41   A(23,24,26)           164.5207         calculate D2E/DX2 analytically  !
 ! A42   A(22,26,24)            96.3841         calculate D2E/DX2 analytically  !
 ! A43   A(22,26,27)           109.8352         calculate D2E/DX2 analytically  !
 ! A44   A(22,26,28)           121.8545         calculate D2E/DX2 analytically  !
 ! A45   A(24,26,27)           102.0498         calculate D2E/DX2 analytically  !
 ! A46   A(24,26,28)           116.5198         calculate D2E/DX2 analytically  !
 ! A47   A(27,26,28)           108.1975         calculate D2E/DX2 analytically  !
 ! A48   A(11,27,26)           169.9873         calculate D2E/DX2 analytically  !
 ! A49   L(2,9,10,3,-1)        179.6211         calculate D2E/DX2 analytically  !
 ! A50   L(2,9,10,3,-2)        175.2489         calculate D2E/DX2 analytically  !
 ! D1    D(4,1,2,3)            -51.07           calculate D2E/DX2 analytically  !
 ! D2    D(4,1,2,8)            178.5169         calculate D2E/DX2 analytically  !
 ! D3    D(4,1,2,9)             64.8287         calculate D2E/DX2 analytically  !
 ! D4    D(12,1,2,3)          -170.8699         calculate D2E/DX2 analytically  !
 ! D5    D(12,1,2,8)            58.717          calculate D2E/DX2 analytically  !
 ! D6    D(12,1,2,9)           -54.9712         calculate D2E/DX2 analytically  !
 ! D7    D(19,1,2,3)            82.9641         calculate D2E/DX2 analytically  !
 ! D8    D(19,1,2,8)           -47.449          calculate D2E/DX2 analytically  !
 ! D9    D(19,1,2,9)          -161.1372         calculate D2E/DX2 analytically  !
 ! D10   D(2,1,4,23)          -161.2827         calculate D2E/DX2 analytically  !
 ! D11   D(12,1,4,23)          -30.4078         calculate D2E/DX2 analytically  !
 ! D12   D(19,1,4,23)           61.5943         calculate D2E/DX2 analytically  !
 ! D13   D(2,1,12,11)         -166.8107         calculate D2E/DX2 analytically  !
 ! D14   D(4,1,12,11)           62.1591         calculate D2E/DX2 analytically  !
 ! D15   D(19,1,12,11)         -46.3899         calculate D2E/DX2 analytically  !
 ! D16   D(2,1,19,17)          137.8524         calculate D2E/DX2 analytically  !
 ! D17   D(4,1,19,17)          -83.0075         calculate D2E/DX2 analytically  !
 ! D18   D(12,1,19,17)          14.06           calculate D2E/DX2 analytically  !
 ! D19   D(1,2,3,5)            177.3117         calculate D2E/DX2 analytically  !
 ! D20   D(1,2,3,6)             57.0581         calculate D2E/DX2 analytically  !
 ! D21   D(1,2,3,7)            -62.4908         calculate D2E/DX2 analytically  !
 ! D22   D(8,2,3,5)            -52.052          calculate D2E/DX2 analytically  !
 ! D23   D(8,2,3,6)           -172.3056         calculate D2E/DX2 analytically  !
 ! D24   D(8,2,3,7)             68.1455         calculate D2E/DX2 analytically  !
 ! D25   D(9,2,3,5)             58.7547         calculate D2E/DX2 analytically  !
 ! D26   D(9,2,3,6)            -61.4989         calculate D2E/DX2 analytically  !
 ! D27   D(9,2,3,7)            178.9522         calculate D2E/DX2 analytically  !
 ! D28   D(1,4,23,24)           -0.0527         calculate D2E/DX2 analytically  !
 ! D29   D(1,4,23,25)         -109.9409         calculate D2E/DX2 analytically  !
 ! D30   D(13,11,12,1)          76.5898         calculate D2E/DX2 analytically  !
 ! D31   D(27,11,12,1)         -36.2423         calculate D2E/DX2 analytically  !
 ! D32   D(12,11,13,14)        -42.7711         calculate D2E/DX2 analytically  !
 ! D33   D(27,11,13,14)         65.2662         calculate D2E/DX2 analytically  !
 ! D34   D(12,11,27,26)         20.5154         calculate D2E/DX2 analytically  !
 ! D35   D(13,11,27,26)        -87.8301         calculate D2E/DX2 analytically  !
 ! D36   D(11,13,14,15)        110.6342         calculate D2E/DX2 analytically  !
 ! D37   D(11,13,14,16)         -0.0358         calculate D2E/DX2 analytically  !
 ! D38   D(13,14,16,17)         -6.9441         calculate D2E/DX2 analytically  !
 ! D39   D(15,14,16,17)       -122.9753         calculate D2E/DX2 analytically  !
 ! D40   D(14,16,17,18)        -69.583          calculate D2E/DX2 analytically  !
 ! D41   D(14,16,17,19)         38.8905         calculate D2E/DX2 analytically  !
 ! D42   D(16,17,18,20)         43.3844         calculate D2E/DX2 analytically  !
 ! D43   D(19,17,18,20)        -65.9285         calculate D2E/DX2 analytically  !
 ! D44   D(16,17,19,1)         -35.1141         calculate D2E/DX2 analytically  !
 ! D45   D(18,17,19,1)          74.1148         calculate D2E/DX2 analytically  !
 ! D46   D(17,18,20,21)        -93.5018         calculate D2E/DX2 analytically  !
 ! D47   D(17,18,20,22)         17.5774         calculate D2E/DX2 analytically  !
 ! D48   D(18,20,22,26)         23.0156         calculate D2E/DX2 analytically  !
 ! D49   D(21,20,22,26)        139.5654         calculate D2E/DX2 analytically  !
 ! D50   D(20,22,26,24)         54.6017         calculate D2E/DX2 analytically  !
 ! D51   D(20,22,26,27)        -50.6864         calculate D2E/DX2 analytically  !
 ! D52   D(20,22,26,28)       -178.6373         calculate D2E/DX2 analytically  !
 ! D53   D(4,23,24,26)         -10.7236         calculate D2E/DX2 analytically  !
 ! D54   D(25,23,24,26)        104.4893         calculate D2E/DX2 analytically  !
 ! D55   D(23,24,26,22)        -70.6564         calculate D2E/DX2 analytically  !
 ! D56   D(23,24,26,27)         41.2449         calculate D2E/DX2 analytically  !
 ! D57   D(23,24,26,28)        158.8518         calculate D2E/DX2 analytically  !
 ! D58   D(22,26,27,11)         62.4768         calculate D2E/DX2 analytically  !
 ! D59   D(24,26,27,11)        -38.9357         calculate D2E/DX2 analytically  !
 ! D60   D(28,26,27,11)       -162.356          calculate D2E/DX2 analytically  !
 --------------------------------------------------------------------------------
 Trust Radius=3.00D-01 FncErr=1.00D-07 GrdErr=1.00D-07
 Number of steps in this run=    150 maximum allowed number of steps=    168.
 Search for a saddle point of order  1.
 GradGradGradGradGradGradGradGradGradGradGradGradGradGradGradGradGradGrad

 Leave Link  103 at Tue Dec  3 19:02:02 2019, MaxMem=  805306368 cpu:       0.1
 (Enter /home/programs/G09_64/g09/l202.exe)
                          Input orientation:                          
 ---------------------------------------------------------------------
 Center     Atomic      Atomic             Coordinates (Angstroms)
 Number     Number       Type             X           Y           Z
 ---------------------------------------------------------------------
      1          8           0        1.070211   -0.692145    0.015806
      2          6           0        2.459367   -0.833374    0.058004
      3          6           0        2.907126   -1.749892    1.179842
      4          1           0        0.466161   -1.519482    0.012967
      5          1           0        3.981739   -1.876829    1.157862
      6          1           0        2.437152   -2.719229    1.076054
      7          1           0        2.625548   -1.334104    2.141705
      8          1           0        2.995561    0.106875    0.031282
      9          1           0        2.875056   -1.428201   -1.055320
     10          1           0        3.135274   -1.892958   -1.870167
     11          8           0       -0.454077    0.544823   -1.762599
     12          1           0        0.318689    0.114783   -1.322544
     13          1           0       -0.492778    1.475870   -1.302737
     14          8           0       -0.489921    2.529118   -0.446829
     15          1           0        0.294833    3.104088   -0.579141
     16          1           0       -0.311220    2.038552    0.455035
     17          8           0       -0.112451    1.152049    1.455622
     18          1           0       -1.009973    0.730416    1.599901
     19          1           0        0.421704    0.424347    1.043571
     20          8           0       -2.386109    0.079108    1.461847
     21          1           0       -3.099824    0.755203    1.474610
     22          1           0       -2.419475   -0.273458    0.520011
     23          8           0       -0.542057   -2.451759   -0.090360
     24          1           0       -1.306619   -1.875285   -0.449773
     25          1           0       -0.853449   -2.734144    0.797330
     26          8           0       -2.124299   -0.794366   -0.860724
     27          1           0       -1.401809   -0.137566   -1.359580
     28          1           0       -2.838093   -1.003574   -1.497741
 ---------------------------------------------------------------------
                    Distance matrix (angstroms):
                    1          2          3          4          5
     1  O    0.000000
     2  C    1.396954   0.000000
     3  C    2.418277   1.516250   0.000000
     4  H    1.024388   2.108469   2.715326   0.000000
     5  H    3.344363   2.148512   1.082308   3.714535   0.000000
     6  H    2.664906   2.143215   1.082248   2.540542   1.761272
     7  H    2.711205   2.149455   1.085056   3.037902   1.761179
     8  H    2.084621   1.082721   2.185084   3.007197   2.485319
     9  H    2.224085   1.328949   2.258420   2.636730   2.514794
    10  H    3.043572   2.301610   3.061874   3.287832   3.144157
    11  O    2.648824   3.701645   5.022087   2.874166   5.836947
    12  H    1.734099   2.717980   4.054498   2.115694   4.851481
    13  H    2.980231   3.987403   5.303591   3.409219   6.108719
    14  O    3.608958   4.501056   5.700518   4.185292   6.479440
    15  H    3.920020   4.538146   5.786122   4.664477   6.435836
    16  H    3.091598   4.010205   5.023485   3.668699   5.852664
    17  O    2.621605   3.536876   4.197041   3.090813   5.101486
    18  H    2.976609   4.105996   4.655323   3.123999   5.648922
    19  H    1.650278   2.589455   3.305027   2.200589   4.240557
    20  O    3.825182   5.126601   5.607415   3.576337   6.668402
    21  H    4.648883   5.952727   6.515046   4.475136   7.561512
    22  H    3.550694   4.932551   5.566678   3.183797   6.629721
    23  O    2.388916   3.413170   3.742044   1.377070   4.727931
    24  H    2.695534   3.940313   4.519625   1.866406   5.527316
    25  H    2.912217   3.890280   3.906020   1.957549   4.923822
    26  O    3.314159   4.674995   5.512910   2.828359   6.521512
    27  H    2.882729   4.171615   5.255014   2.698683   6.192345
    28  H    4.202696   5.523802   6.382318   3.669672   7.370544
                    6          7          8          9         10
     6  H    0.000000
     7  H    1.757748   0.000000
     8  H    3.064348   2.582095   0.000000
     9  H    2.530073   3.208127   1.884591   0.000000
    10  H    3.138521   4.082555   2.763034   0.973493   0.000000
    11  O    5.202999   5.315830   3.912775   3.933979   4.340252
    12  H    4.274668   4.407028   2.999758   2.997869   3.502008
    13  H    5.642871   5.429926   3.977721   4.453891   4.983346
    14  O    6.199361   5.597423   4.271350   5.230077   5.892595
    15  H    6.421855   5.703752   4.080421   5.236978   5.891122
    16  H    5.529530   4.779568   3.853017   4.944886   5.722032
    17  O    4.650951   3.761424   3.575034   4.678431   5.557036
    18  H    4.904808   4.215781   4.346685   5.177188   6.008871
    19  H    3.734322   3.025719   2.783928   3.722393   4.606868
    20  O    5.589578   5.251294   5.568631   6.023949   6.743666
    21  H    6.548941   6.131077   6.297399   6.845947   7.554914
    22  H    5.466060   5.404361   5.450332   5.643328   6.260269
    23  O    3.210569   4.032988   4.367624   3.695332   4.123437
    24  H    4.129917   4.740314   4.761210   4.248879   4.663501
    25  H    3.302418   3.983827   4.844904   4.363433   4.871657
    26  O    5.316300   5.645082   5.274550   5.043130   5.467082
    27  H    5.228281   5.469032   4.618561   4.477710   4.891546
    28  H    6.115236   6.573142   6.132090   5.745965   6.050687
                   11         12         13         14         15
    11  O    0.000000
    12  H    0.987801   0.000000
    13  H    1.039144   1.584749   0.000000
    14  O    2.381168   2.692534   1.357173   0.000000
    15  H    2.917409   3.080448   1.948080   0.981802   0.000000
    16  H    2.677599   2.693967   1.854545   1.042088   1.603804
    17  O    3.292777   2.996666   2.803222   2.378681   2.848964
    18  H    3.413191   3.268797   3.041135   2.773966   3.476358
    19  H    2.942125   2.388502   2.728945   2.735400   3.135331
    20  O    3.787702   3.882015   3.630230   3.638835   4.528089
    21  H    4.186139   4.463232   3.876816   3.694631   4.610732
    22  H    3.121327   3.323143   3.177219   3.537286   4.470282
    23  O    3.432729   2.974273   4.110785   4.993889   5.639745
    24  H    2.882232   2.713619   3.552481   4.479483   5.232164
    25  H    4.179038   3.739540   4.718536   5.420518   6.107223
    26  O    2.323025   2.647267   2.830408   3.726667   4.596676
    27  H    1.235425   1.739300   1.852767   2.962407   3.741123
    28  H    2.855033   3.353608   3.418504   4.370153   5.247089
                   16         17         18         19         20
    16  H    0.000000
    17  O    1.351507   0.000000
    18  H    1.873551   1.002066   0.000000
    19  H    1.867943   0.992299   1.566167   0.000000
    20  O    3.026261   2.514113   1.528729   2.859713   0.000000
    21  H    3.234630   3.013676   2.093750   3.563204   0.983187
    22  H    3.129593   2.868762   2.039760   2.972094   1.006216
    23  O    4.529198   3.944877   3.633478   3.238305   3.495020
    24  H    4.138552   3.771116   3.328489   3.241216   2.939259
    25  H    4.815579   4.010601   3.559747   3.415072   3.271852
    26  O    3.611634   3.633390   3.101831   3.404957   2.495163
    27  H    3.036067   3.354238   3.108932   3.068563   2.996038
    28  H    4.410550   4.560503   3.993010   4.373043   3.183654
                   21         22         23         24         25
    21  H    0.000000
    22  H    1.559576   0.000000
    23  O    4.390434   2.939770   0.000000
    24  H    3.719987   2.178251   1.022768   0.000000
    25  H    4.204813   2.929901   0.982191   1.580591   0.000000
    26  O    2.967591   1.504960   2.417416   1.416286   2.850779
    27  H    3.422415   2.141722   2.775893   1.963792   3.419821
    28  H    3.463621   2.186237   3.057735   2.050251   3.492998
                   26         27         28
    26  O    0.000000
    27  H    1.096465   0.000000
    28  H    0.979316   1.682846   0.000000
 Stoichiometry    C2H19O7(2)
 Framework group  C1[X(C2H19O7)]
 Deg. of freedom    78
 Full point group                 C1      NOp   1
 Largest Abelian subgroup         C1      NOp   1
 Largest concise Abelian subgroup C1      NOp   1
                         Standard orientation:                         
 ---------------------------------------------------------------------
 Center     Atomic      Atomic             Coordinates (Angstroms)
 Number     Number       Type             X           Y           Z
 ---------------------------------------------------------------------
      1          8           0       -1.168686   -0.121867   -0.180170
      2          6           0       -2.453942   -0.660649   -0.276675
      3          6           0       -3.395123   -0.084280    0.763031
      4          1           0       -1.034084    0.893327   -0.154995
      5          1           0       -4.392221   -0.484759    0.633401
      6          1           0       -3.434947    0.993207    0.669771
      7          1           0       -3.049124   -0.328923    1.761921
      8          1           0       -2.472547   -1.742317   -0.320647
      9          1           0       -2.986878   -0.320470   -1.445591
     10          1           0       -3.352450   -0.024660   -2.297965
     11          8           0        0.932284   -0.457436   -1.758012
     12          1           0        0.007803   -0.454060   -1.410056
     13          1           0        1.362159   -1.263724   -1.263112
     14          8           0        1.773580   -2.202768   -0.373817
     15          1           0        1.374798   -3.080420   -0.559926
     16          1           0        1.292438   -1.869417    0.488347
     17          8           0        0.595417   -1.199020    1.432434
     18          1           0        1.164443   -0.402540    1.646831
     19          1           0       -0.175518   -0.808345    0.944900
     20          8           0        2.071133    0.827945    1.618007
     21          1           0        3.015009    0.573822    1.723729
     22          1           0        2.028353    1.166899    0.671566
     23          8           0       -0.586028    2.194858   -0.194781
     24          1           0        0.392731    2.057741   -0.458000
     25          1           0       -0.538491    2.579101    0.707881
     26          8           0        1.663058    1.503307   -0.749100
     27          1           0        1.394861    0.588546   -1.290874
     28          1           0        2.252006    2.036413   -1.321812
 ---------------------------------------------------------------------
 Rotational constants (GHZ):      1.1405353      0.7349478      0.6411327
 Leave Link  202 at Tue Dec  3 19:02:02 2019, MaxMem=  805306368 cpu:       0.0
 (Enter /home/programs/G09_64/g09/l120.exe)
 ONIOM: saving gridpoint 17
 ONIOM: generating point  3 -- low level on real system.
 Leave Link  120 at Tue Dec  3 19:02:02 2019, MaxMem=  805306368 cpu:       0.0
 (Enter /home/programs/G09_64/g09/l301.exe)
 Standard basis: STO-3G (5D, 7F)
 Ernie: Thresh=  0.10000D-02 Tol=  0.10000D-05 Strict=F.
 There are    64 symmetry adapted basis functions of A   symmetry.
 Integral buffers will be    131072 words long.
 Raffenetti 2 integral format.
 Two-electron integral symmetry is turned on.
    64 basis functions,   192 primitive gaussians,    64 cartesian basis functions
    44 alpha electrons       43 beta electrons
       nuclear repulsion energy       625.8525847325 Hartrees.
 IExCor=    0 DFT=F Ex=HF Corr=None ExCW=0 ScaHFX=  1.000000
 ScaDFX=  1.000000  1.000000  1.000000  1.000000 ScalE2=  1.000000  1.000000
 IRadAn=      0 IRanWt=     -1 IRanGd=            0 ICorTp=0
 NAtoms=   28 NActive=   28 NUniq=   28 SFac= 1.00D+00 NAtFMM=   50 NAOKFM=F Big=F
 Leave Link  301 at Tue Dec  3 19:02:02 2019, MaxMem=  805306368 cpu:       0.3
 (Enter /home/programs/G09_64/g09/l302.exe)
 NPDir=0 NMtPBC=     1 NCelOv=     1 NCel=       1 NClECP=     1 NCelD=      1
         NCelK=      1 NCelE2=     1 NClLst=     1 CellRange=     0.0.
 One-electron integrals computed using PRISM.
 NBasis=    64 RedAO= T  NBF=    64
 NBsUse=    64 1.00D-06 NBFU=    64
 Leave Link  302 at Tue Dec  3 19:02:02 2019, MaxMem=  805306368 cpu:       1.0
 (Enter /home/programs/G09_64/g09/l303.exe)
 DipDrv:  MaxL=1.
 Leave Link  303 at Tue Dec  3 19:02:02 2019, MaxMem=  805306368 cpu:       0.3
 (Enter /home/programs/G09_64/g09/l401.exe)
 Harris functional with IExCor=  205 diagonalized for initial guess.
 ExpMin= 1.69D-01 ExpMax= 1.31D+02 ExpMxC= 1.31D+02 IAcc=1 IRadAn=         1 AccDes= 0.00D+00
 HarFok:  IExCor=  205 AccDes= 0.00D+00 IRadAn=         1 IDoV= 1
 ScaDFX=  1.000000  1.000000  1.000000  1.000000
 FoFCou: FMM=F IPFlag=           0 FMFlag=      100000 FMFlg1=           0
         NFxFlg=           0 DoJE=T BraDBF=F KetDBF=T FulRan=T
         Omega=  0.000000  0.000000  1.000000  0.000000  0.000000 ICntrl=     500 IOpCl=  0
         NMat0=    1 NMatS0=    1 NMatT0=    0 NMatD0=    1 NMtDS0=    0 NMtDT0=    0
         I1Cent=           4 NGrid=           0.
 Petite list used in FoFCou.
 Harris En= -603.242541404826    
 Initial guess orbital symmetries:
 Alpha Orbitals:
       Occupied  (A) (A) (A) (A) (A) (A) (A) (A) (A) (A) (A) (A)
                 (A) (A) (A) (A) (A) (A) (A) (A) (A) (A) (A) (A)
                 (A) (A) (A) (A) (A) (A) (A) (A) (A) (A) (A) (A)
                 (A) (A) (A) (A) (A) (A) (A) (A)
       Virtual   (A) (A) (A) (A) (A) (A) (A) (A) (A) (A) (A) (A)
                 (A) (A) (A) (A) (A) (A) (A) (A)
 Beta  Orbitals:
       Occupied  (A) (A) (A) (A) (A) (A) (A) (A) (A) (A) (A) (A)
                 (A) (A) (A) (A) (A) (A) (A) (A) (A) (A) (A) (A)
                 (A) (A) (A) (A) (A) (A) (A) (A) (A) (A) (A) (A)
                 (A) (A) (A) (A) (A) (A) (A)
       Virtual   (A) (A) (A) (A) (A) (A) (A) (A) (A) (A) (A) (A)
                 (A) (A) (A) (A) (A) (A) (A) (A) (A)
 The electronic state of the initial guess is 2-A.
 Initial guess <Sx>= 0.0000 <Sy>= 0.0000 <Sz>= 0.5000 <S**2>= 0.7500 S= 0.5000
 Leave Link  401 at Tue Dec  3 19:02:03 2019, MaxMem=  805306368 cpu:       1.9
 (Enter /home/programs/G09_64/g09/l502.exe)
 UHF open shell SCF:
 Requested convergence on RMS density matrix=1.00D-08 within 128 cycles.
 Requested convergence on MAX density matrix=1.00D-06.
 Requested convergence on             energy=1.00D-06.
 No special actions if energy rises.
 Using DIIS extrapolation, IDIIS=  1040.
 Integral symmetry usage will be decided dynamically.
 Keep R1 and R2 ints in memory in canonical form, NReq=5159988.
 IEnd=       31487 IEndB=       31487 NGot=   805306368 MDV=   800967174
 LenX=   800967174 LenY=   800962637
 Symmetry not used in FoFDir.
 MinBra= 0 MaxBra= 1 Meth= 1.
 IRaf=       0 NMat=   1 IRICut=       1 DoRegI=T DoRafI=F ISym2E= 0 JSym2E=0.

 Cycle   1  Pass 1  IDiag  1:
 E= -602.265686689437    
 DIIS: error= 4.41D-02 at cycle   1 NSaved=   1.
 NSaved= 1 IEnMin= 1 EnMin= -602.265686689437     IErMin= 1 ErrMin= 4.41D-02
 ErrMax= 4.41D-02 EMaxC= 1.00D-01 BMatC= 7.00D-01 BMatP= 7.00D-01
 IDIUse=3 WtCom= 5.59D-01 WtEn= 4.41D-01
 Coeff-Com:  0.100D+01
 Coeff-En:   0.100D+01
 Coeff:      0.100D+01
 Gap=     0.807 Goal=   None    Shift=    0.000
 Gap=     0.523 Goal=   None    Shift=    0.000
 GapD=    0.523 DampG=2.000 DampE=0.500 DampFc=1.0000 IDamp=-1.
 RMSDP=8.91D-03 MaxDP=1.12D-01              OVMax= 0.00D+00

 Cycle   2  Pass 1  IDiag  1:
 E= -602.473951531472     Delta-E=       -0.208264842035 Rises=F Damp=F
 DIIS: error= 7.81D-03 at cycle   2 NSaved=   2.
 NSaved= 2 IEnMin= 2 EnMin= -602.473951531472     IErMin= 2 ErrMin= 7.81D-03
 ErrMax= 7.81D-03 EMaxC= 1.00D-01 BMatC= 2.83D-02 BMatP= 7.00D-01
 IDIUse=3 WtCom= 9.22D-01 WtEn= 7.81D-02
 Coeff-Com:  0.290D-01 0.971D+00
 Coeff-En:   0.000D+00 0.100D+01
 Coeff:      0.267D-01 0.973D+00
 Gap=     0.783 Goal=   None    Shift=    0.000
 Gap=     0.548 Goal=   None    Shift=    0.000
 RMSDP=2.14D-03 MaxDP=4.08D-02 DE=-2.08D-01 OVMax= 0.00D+00

 Cycle   3  Pass 1  IDiag  1:
 E= -602.485897358416     Delta-E=       -0.011945826944 Rises=F Damp=F
 DIIS: error= 6.12D-03 at cycle   3 NSaved=   3.
 NSaved= 3 IEnMin= 3 EnMin= -602.485897358416     IErMin= 3 ErrMin= 6.12D-03
 ErrMax= 6.12D-03 EMaxC= 1.00D-01 BMatC= 3.83D-03 BMatP= 2.83D-02
 IDIUse=3 WtCom= 9.39D-01 WtEn= 6.12D-02
 Coeff-Com: -0.298D-01-0.331D-01 0.106D+01
 Coeff-En:   0.000D+00 0.000D+00 0.100D+01
 Coeff:     -0.280D-01-0.310D-01 0.106D+01
 Gap=     0.784 Goal=   None    Shift=    0.000
 Gap=     0.566 Goal=   None    Shift=    0.000
 RMSDP=9.86D-04 MaxDP=2.59D-02 DE=-1.19D-02 OVMax= 0.00D+00

 Cycle   4  Pass 1  IDiag  1:
 E= -602.488515560861     Delta-E=       -0.002618202445 Rises=F Damp=F
 DIIS: error= 2.54D-03 at cycle   4 NSaved=   4.
 NSaved= 4 IEnMin= 4 EnMin= -602.488515560861     IErMin= 4 ErrMin= 2.54D-03
 ErrMax= 2.54D-03 EMaxC= 1.00D-01 BMatC= 9.13D-04 BMatP= 3.83D-03
 IDIUse=3 WtCom= 9.75D-01 WtEn= 2.54D-02
 Coeff-Com:  0.204D-02-0.119D+00-0.190D+00 0.131D+01
 Coeff-En:   0.000D+00 0.000D+00 0.000D+00 0.100D+01
 Coeff:      0.199D-02-0.116D+00-0.186D+00 0.130D+01
 Gap=     0.790 Goal=   None    Shift=    0.000
 Gap=     0.568 Goal=   None    Shift=    0.000
 RMSDP=6.44D-04 MaxDP=2.03D-02 DE=-2.62D-03 OVMax= 0.00D+00

 Cycle   5  Pass 1  IDiag  1:
 E= -602.489314173749     Delta-E=       -0.000798612887 Rises=F Damp=F
 DIIS: error= 1.20D-03 at cycle   5 NSaved=   5.
 NSaved= 5 IEnMin= 5 EnMin= -602.489314173749     IErMin= 5 ErrMin= 1.20D-03
 ErrMax= 1.20D-03 EMaxC= 1.00D-01 BMatC= 1.25D-04 BMatP= 9.13D-04
 IDIUse=3 WtCom= 9.88D-01 WtEn= 1.20D-02
 Coeff-Com:  0.291D-02 0.313D-01-0.944D-01-0.301D+00 0.136D+01
 Coeff-En:   0.000D+00 0.000D+00 0.000D+00 0.000D+00 0.100D+01
 Coeff:      0.287D-02 0.309D-01-0.932D-01-0.297D+00 0.136D+01
 Gap=     0.791 Goal=   None    Shift=    0.000
 Gap=     0.570 Goal=   None    Shift=    0.000
 RMSDP=2.92D-04 MaxDP=8.31D-03 DE=-7.99D-04 OVMax= 0.00D+00

 Cycle   6  Pass 1  IDiag  1:
 E= -602.489451220085     Delta-E=       -0.000137046336 Rises=F Damp=F
 DIIS: error= 2.69D-04 at cycle   6 NSaved=   6.
 NSaved= 6 IEnMin= 6 EnMin= -602.489451220085     IErMin= 6 ErrMin= 2.69D-04
 ErrMax= 2.69D-04 EMaxC= 1.00D-01 BMatC= 1.79D-05 BMatP= 1.25D-04
 IDIUse=3 WtCom= 9.97D-01 WtEn= 2.69D-03
 Coeff-Com: -0.820D-03 0.116D-01 0.422D-01-0.134D+00-0.197D+00 0.128D+01
 Coeff-En:   0.000D+00 0.000D+00 0.000D+00 0.000D+00 0.000D+00 0.100D+01
 Coeff:     -0.818D-03 0.116D-01 0.421D-01-0.134D+00-0.196D+00 0.128D+01
 Gap=     0.792 Goal=   None    Shift=    0.000
 Gap=     0.571 Goal=   None    Shift=    0.000
 RMSDP=1.12D-04 MaxDP=2.70D-03 DE=-1.37D-04 OVMax= 0.00D+00

 Cycle   7  Pass 1  IDiag  1:
 E= -602.489470720435     Delta-E=       -0.000019500349 Rises=F Damp=F
 DIIS: error= 1.24D-04 at cycle   7 NSaved=   7.
 NSaved= 7 IEnMin= 7 EnMin= -602.489470720435     IErMin= 7 ErrMin= 1.24D-04
 ErrMax= 1.24D-04 EMaxC= 1.00D-01 BMatC= 3.12D-06 BMatP= 1.79D-05
 IDIUse=3 WtCom= 9.99D-01 WtEn= 1.24D-03
 Coeff-Com: -0.132D-03-0.892D-02-0.132D-02 0.917D-01-0.120D+00-0.532D+00
 Coeff-Com:  0.157D+01
 Coeff-En:   0.000D+00 0.000D+00 0.000D+00 0.000D+00 0.000D+00 0.000D+00
 Coeff-En:   0.100D+01
 Coeff:     -0.132D-03-0.891D-02-0.132D-02 0.916D-01-0.120D+00-0.532D+00
 Coeff:      0.157D+01
 Gap=     0.792 Goal=   None    Shift=    0.000
 Gap=     0.571 Goal=   None    Shift=    0.000
 RMSDP=5.74D-05 MaxDP=1.23D-03 DE=-1.95D-05 OVMax= 0.00D+00

 Cycle   8  Pass 1  IDiag  1:
 E= -602.489474444459     Delta-E=       -0.000003724024 Rises=F Damp=F
 DIIS: error= 3.52D-05 at cycle   8 NSaved=   8.
 NSaved= 8 IEnMin= 8 EnMin= -602.489474444459     IErMin= 8 ErrMin= 3.52D-05
 ErrMax= 3.52D-05 EMaxC= 1.00D-01 BMatC= 2.96D-07 BMatP= 3.12D-06
 IDIUse=1 WtCom= 1.00D+00 WtEn= 0.00D+00
 Coeff-Com:  0.114D-03-0.653D-03-0.583D-02 0.930D-02 0.448D-01-0.123D+00
 Coeff-Com: -0.184D+00 0.126D+01
 Coeff:      0.114D-03-0.653D-03-0.583D-02 0.930D-02 0.448D-01-0.123D+00
 Coeff:     -0.184D+00 0.126D+01
 Gap=     0.792 Goal=   None    Shift=    0.000
 Gap=     0.571 Goal=   None    Shift=    0.000
 RMSDP=1.62D-05 MaxDP=3.06D-04 DE=-3.72D-06 OVMax= 0.00D+00

 Cycle   9  Pass 1  IDiag  1:
 E= -602.489474737570     Delta-E=       -0.000000293111 Rises=F Damp=F
 DIIS: error= 9.77D-06 at cycle   9 NSaved=   9.
 NSaved= 9 IEnMin= 9 EnMin= -602.489474737570     IErMin= 9 ErrMin= 9.77D-06
 ErrMax= 9.77D-06 EMaxC= 1.00D-01 BMatC= 2.97D-08 BMatP= 2.96D-07
 IDIUse=1 WtCom= 1.00D+00 WtEn= 0.00D+00
 Coeff-Com: -0.134D-04 0.914D-03 0.120D-02-0.949D-02-0.569D-04 0.739D-01
 Coeff-Com: -0.948D-01-0.284D+00 0.131D+01
 Coeff:     -0.134D-04 0.914D-03 0.120D-02-0.949D-02-0.569D-04 0.739D-01
 Coeff:     -0.948D-01-0.284D+00 0.131D+01
 Gap=     0.792 Goal=   None    Shift=    0.000
 Gap=     0.571 Goal=   None    Shift=    0.000
 RMSDP=4.14D-06 MaxDP=9.46D-05 DE=-2.93D-07 OVMax= 0.00D+00

 Cycle  10  Pass 1  IDiag  1:
 E= -602.489474763249     Delta-E=       -0.000000025679 Rises=F Damp=F
 DIIS: error= 4.11D-06 at cycle  10 NSaved=  10.
 NSaved=10 IEnMin=10 EnMin= -602.489474763249     IErMin=10 ErrMin= 4.11D-06
 ErrMax= 4.11D-06 EMaxC= 1.00D-01 BMatC= 4.33D-09 BMatP= 2.97D-08
 IDIUse=1 WtCom= 1.00D+00 WtEn= 0.00D+00
 Coeff-Com: -0.129D-04-0.105D-03 0.616D-03 0.673D-03-0.682D-02 0.296D-02
 Coeff-Com:  0.449D-01-0.120D+00-0.274D+00 0.135D+01
 Coeff:     -0.129D-04-0.105D-03 0.616D-03 0.673D-03-0.682D-02 0.296D-02
 Coeff:      0.449D-01-0.120D+00-0.274D+00 0.135D+01
 Gap=     0.792 Goal=   None    Shift=    0.000
 Gap=     0.571 Goal=   None    Shift=    0.000
 RMSDP=1.73D-06 MaxDP=4.03D-05 DE=-2.57D-08 OVMax= 0.00D+00

 Cycle  11  Pass 1  IDiag  1:
 E= -602.489474767387     Delta-E=       -0.000000004138 Rises=F Damp=F
 DIIS: error= 1.88D-06 at cycle  11 NSaved=  11.
 NSaved=11 IEnMin=11 EnMin= -602.489474767387     IErMin=11 ErrMin= 1.88D-06
 ErrMax= 1.88D-06 EMaxC= 1.00D-01 BMatC= 6.46D-10 BMatP= 4.33D-09
 IDIUse=1 WtCom= 1.00D+00 WtEn= 0.00D+00
 Coeff-Com:  0.100D-04-0.548D-04-0.524D-03 0.765D-03 0.411D-02-0.106D-01
 Coeff-Com: -0.161D-01 0.106D+00 0.130D-01-0.800D+00 0.170D+01
 Coeff:      0.100D-04-0.548D-04-0.524D-03 0.765D-03 0.411D-02-0.106D-01
 Coeff:     -0.161D-01 0.106D+00 0.130D-01-0.800D+00 0.170D+01
 Gap=     0.792 Goal=   None    Shift=    0.000
 Gap=     0.571 Goal=   None    Shift=    0.000
 RMSDP=7.58D-07 MaxDP=1.47D-05 DE=-4.14D-09 OVMax= 0.00D+00

 Cycle  12  Pass 1  IDiag  1:
 E= -602.489474768139     Delta-E=       -0.000000000752 Rises=F Damp=F
 DIIS: error= 7.94D-07 at cycle  12 NSaved=  12.
 NSaved=12 IEnMin=12 EnMin= -602.489474768139     IErMin=12 ErrMin= 7.94D-07
 ErrMax= 7.94D-07 EMaxC= 1.00D-01 BMatC= 7.68D-11 BMatP= 6.46D-10
 IDIUse=1 WtCom= 1.00D+00 WtEn= 0.00D+00
 Coeff-Com:  0.825D-07 0.206D-04 0.195D-04-0.183D-03-0.200D-04 0.164D-02
 Coeff-Com: -0.188D-02-0.822D-02 0.331D-01-0.233D-02-0.378D+00 0.136D+01
 Coeff:      0.825D-07 0.206D-04 0.195D-04-0.183D-03-0.200D-04 0.164D-02
 Coeff:     -0.188D-02-0.822D-02 0.331D-01-0.233D-02-0.378D+00 0.136D+01
 Gap=     0.792 Goal=   None    Shift=    0.000
 Gap=     0.571 Goal=   None    Shift=    0.000
 RMSDP=2.59D-07 MaxDP=5.58D-06 DE=-7.52D-10 OVMax= 0.00D+00

 Cycle  13  Pass 1  IDiag  1:
 E= -602.489474768230     Delta-E=       -0.000000000091 Rises=F Damp=F
 DIIS: error= 2.52D-07 at cycle  13 NSaved=  13.
 NSaved=13 IEnMin=13 EnMin= -602.489474768230     IErMin=13 ErrMin= 2.52D-07
 ErrMax= 2.52D-07 EMaxC= 1.00D-01 BMatC= 1.10D-11 BMatP= 7.68D-11
 IDIUse=1 WtCom= 1.00D+00 WtEn= 0.00D+00
 Coeff-Com: -0.168D-05 0.426D-05 0.838D-04-0.891D-04-0.684D-03 0.142D-02
 Coeff-Com:  0.314D-02-0.161D-01-0.880D-02 0.134D+00-0.216D+00-0.234D+00
 Coeff-Com:  0.134D+01
 Coeff:     -0.168D-05 0.426D-05 0.838D-04-0.891D-04-0.684D-03 0.142D-02
 Coeff:      0.314D-02-0.161D-01-0.880D-02 0.134D+00-0.216D+00-0.234D+00
 Coeff:      0.134D+01
 Gap=     0.792 Goal=   None    Shift=    0.000
 Gap=     0.571 Goal=   None    Shift=    0.000
 RMSDP=1.01D-07 MaxDP=2.24D-06 DE=-9.12D-11 OVMax= 0.00D+00

 Cycle  14  Pass 1  IDiag  1:
 E= -602.489474768242     Delta-E=       -0.000000000012 Rises=F Damp=F
 DIIS: error= 7.88D-08 at cycle  14 NSaved=  14.
 NSaved=14 IEnMin=14 EnMin= -602.489474768242     IErMin=14 ErrMin= 7.88D-08
 ErrMax= 7.88D-08 EMaxC= 1.00D-01 BMatC= 1.32D-12 BMatP= 1.10D-11
 IDIUse=1 WtCom= 1.00D+00 WtEn= 0.00D+00
 Coeff-Com:  0.558D-06-0.351D-05-0.307D-04 0.448D-04 0.246D-03-0.650D-03
 Coeff-Com: -0.996D-03 0.670D-02-0.481D-03-0.467D-01 0.116D+00-0.617D-01
 Coeff-Com: -0.476D+00 0.146D+01
 Coeff:      0.558D-06-0.351D-05-0.307D-04 0.448D-04 0.246D-03-0.650D-03
 Coeff:     -0.996D-03 0.670D-02-0.481D-03-0.467D-01 0.116D+00-0.617D-01
 Coeff:     -0.476D+00 0.146D+01
 Gap=     0.792 Goal=   None    Shift=    0.000
 Gap=     0.571 Goal=   None    Shift=    0.000
 RMSDP=3.17D-08 MaxDP=5.78D-07 DE=-1.21D-11 OVMax= 0.00D+00

 Cycle  15  Pass 1  IDiag  1:
 E= -602.489474768243     Delta-E=       -0.000000000001 Rises=F Damp=F
 DIIS: error= 2.68D-08 at cycle  15 NSaved=  15.
 NSaved=15 IEnMin=15 EnMin= -602.489474768243     IErMin=15 ErrMin= 2.68D-08
 ErrMax= 2.68D-08 EMaxC= 1.00D-01 BMatC= 1.63D-13 BMatP= 1.32D-12
 IDIUse=1 WtCom= 1.00D+00 WtEn= 0.00D+00
 Coeff-Com:  0.180D-06-0.333D-06-0.844D-05 0.113D-04 0.528D-04-0.109D-03
 Coeff-Com: -0.255D-03 0.113D-02 0.138D-02-0.112D-01 0.107D-01 0.459D-01
 Coeff-Com: -0.989D-01-0.300D+00 0.135D+01
 Coeff:      0.180D-06-0.333D-06-0.844D-05 0.113D-04 0.528D-04-0.109D-03
 Coeff:     -0.255D-03 0.113D-02 0.138D-02-0.112D-01 0.107D-01 0.459D-01
 Coeff:     -0.989D-01-0.300D+00 0.135D+01
 Gap=     0.792 Goal=   None    Shift=    0.000
 Gap=     0.571 Goal=   None    Shift=    0.000
 RMSDP=1.11D-08 MaxDP=2.53D-07 DE=-6.82D-13 OVMax= 0.00D+00

 Cycle  16  Pass 1  IDiag  1:
 E= -602.489474768244     Delta-E=       -0.000000000001 Rises=F Damp=F
 DIIS: error= 7.65D-09 at cycle  16 NSaved=  16.
 NSaved=16 IEnMin=16 EnMin= -602.489474768244     IErMin=16 ErrMin= 7.65D-09
 ErrMax= 7.65D-09 EMaxC= 1.00D-01 BMatC= 1.36D-14 BMatP= 1.63D-13
 IDIUse=1 WtCom= 1.00D+00 WtEn= 0.00D+00
 Coeff-Com: -0.109D-06 0.404D-06 0.553D-05-0.655D-05-0.434D-04 0.985D-04
 Coeff-Com:  0.199D-03-0.108D-02-0.332D-03 0.821D-02-0.156D-01-0.658D-02
 Coeff-Com:  0.798D-01-0.764D-01-0.382D+00 0.139D+01
 Coeff:     -0.109D-06 0.404D-06 0.553D-05-0.655D-05-0.434D-04 0.985D-04
 Coeff:      0.199D-03-0.108D-02-0.332D-03 0.821D-02-0.156D-01-0.658D-02
 Coeff:      0.798D-01-0.764D-01-0.382D+00 0.139D+01
 Gap=     0.792 Goal=   None    Shift=    0.000
 Gap=     0.571 Goal=   None    Shift=    0.000
 RMSDP=3.46D-09 MaxDP=7.29D-08 DE=-1.36D-12 OVMax= 0.00D+00

 SCF Done:  E(UHF) =  -602.489474768     A.U. after   16 cycles
             Convg  =    0.3455D-08             -V/T =  2.0044
 <Sx>= 0.0000 <Sy>= 0.0000 <Sz>= 0.5000 <S**2>= 0.7925 S= 0.5210
 <L.S>= 0.000000000000E+00
 KE= 5.998551975741D+02 PE=-2.683322481857D+03 EE= 8.551252247821D+02
 Annihilation of the first spin contaminant:
 S**2 before annihilation     0.7925,   after     0.7503
 Leave Link  502 at Tue Dec  3 19:02:03 2019, MaxMem=  805306368 cpu:       3.2
 (Enter /home/programs/G09_64/g09/l801.exe)
 Range of M.O.s used for correlation:     1    64
 NBasis=    64 NAE=    44 NBE=    43 NFC=     0 NFV=     0
 NROrb=     64 NOA=    44 NOB=    43 NVA=    20 NVB=    21
 Leave Link  801 at Tue Dec  3 19:02:03 2019, MaxMem=  805306368 cpu:       0.3
 (Enter /home/programs/G09_64/g09/l1101.exe)
 Using compressed storage, NAtomX=    28.
 Will process  29 centers per pass.
 Leave Link 1101 at Tue Dec  3 19:02:03 2019, MaxMem=  805306368 cpu:       1.0
 (Enter /home/programs/G09_64/g09/l1102.exe)
 Symmetrizing basis deriv contribution to polar:
 IMax=3 JMax=2 DiffMx= 0.00D+00
 Leave Link 1102 at Tue Dec  3 19:02:03 2019, MaxMem=  805306368 cpu:       0.3
 (Enter /home/programs/G09_64/g09/l1110.exe)
 Forming Gx(P) for the SCF density, NAtomX=    28.
 Integral derivatives from FoFDir/FoFCou, PRISM(SPDF).
 Do as many integral derivatives as possible in FoFDir.
 G2DrvN: MDV=     805306040.
 G2DrvN: will do    29 centers at a time, making    1 passes doing MaxLOS=1.
 Calling FoFCou, ICntrl=  3107 FMM=F I1Cent=   0 AccDes= 0.00D+00.
 FoFCou: FMM=F IPFlag=           0 FMFlag=      100000 FMFlg1=           0
         NFxFlg=           0 DoJE=F BraDBF=F KetDBF=F FulRan=T
         Omega=  0.000000  0.000000  1.000000  0.000000  0.000000 ICntrl=    3107 IOpCl=  1
         NMat0=    1 NMatS0=    1 NMatT0=    0 NMatD0=    1 NMtDS0=    0 NMtDT0=    0
         I1Cent=           0 NGrid=           0.
 Symmetry not used in FoFCou.
 FoFDir/FoFCou used for L=0 through L=1.
 End of G2Drv Frequency-dependent properties file   721 does not exist.
 End of G2Drv Frequency-dependent properties file   722 does not exist.
 Leave Link 1110 at Tue Dec  3 19:02:04 2019, MaxMem=  805306368 cpu:       2.6
 (Enter /home/programs/G09_64/g09/l1002.exe)
 Minotr:  UHF open shell wavefunction.
          IDoAtm=1111111111111111111111111111
          Direct CPHF calculation.
          Differentiating once with respect to nuclear coordinates.
          Requested convergence is 1.0D-06 RMS, and 1.0D-05 maximum.
          Secondary convergence is 1.0D-12 RMS, and 1.0D-12 maximum.
          NewPWx=T KeepS1=F KeepF1=F KeepIn=T MapXYZ=F SortEE=F KeepMc=T.
          MDV=     805306084 using IRadAn=       2.
          Keep R1 and R2 ints in memory in canonical form, NReq=5130004.
 Symmetry not used in FoFDir.
 MinBra= 0 MaxBra= 1 Meth= 1.
 IRaf=       0 NMat=   1 IRICut=       1 DoRegI=T DoRafI=F ISym2E= 0 JSym2E=0.
          Solving linear equations simultaneously, MaxMat=       0.
          There are    87 degrees of freedom in the 1st order CPHF.  IDoFFX=5.
     81 vectors produced by pass  0 Test12= 2.05D-11 1.15D-07 XBig12= 9.01D-02 1.16D-01.
 AX will form    81 AO Fock derivatives at one time.
     81 vectors produced by pass  1 Test12= 2.05D-11 1.15D-07 XBig12= 7.74D-04 7.80D-03.
     81 vectors produced by pass  2 Test12= 2.05D-11 1.15D-07 XBig12= 5.22D-06 4.30D-04.
     81 vectors produced by pass  3 Test12= 2.05D-11 1.15D-07 XBig12= 5.14D-08 4.41D-05.
     30 vectors produced by pass  4 Test12= 2.05D-11 1.15D-07 XBig12= 3.63D-10 2.54D-06.
      2 vectors produced by pass  5 Test12= 2.05D-11 1.15D-07 XBig12= 2.58D-12 1.92D-07.
 Inverted reduced A of dimension   356 with in-core refinement.
 End of Minotr Frequency-dependent properties file   721 does not exist.
 End of Minotr Frequency-dependent properties file   722 does not exist.
 Leave Link 1002 at Tue Dec  3 19:02:05 2019, MaxMem=  805306368 cpu:       8.3
 (Enter /home/programs/G09_64/g09/l601.exe)
 Copying SCF densities to generalized density rwf, IOpCl= 1 IROHF=0.

 **********************************************************************

            Population analysis using the SCF density.

 **********************************************************************

 Orbital symmetries:
 Alpha Orbitals:
       Occupied  (A) (A) (A) (A) (A) (A) (A) (A) (A) (A) (A) (A)
                 (A) (A) (A) (A) (A) (A) (A) (A) (A) (A) (A) (A)
                 (A) (A) (A) (A) (A) (A) (A) (A) (A) (A) (A) (A)
                 (A) (A) (A) (A) (A) (A) (A) (A)
       Virtual   (A) (A) (A) (A) (A) (A) (A) (A) (A) (A) (A) (A)
                 (A) (A) (A) (A) (A) (A) (A) (A)
 Beta  Orbitals:
       Occupied  (A) (A) (A) (A) (A) (A) (A) (A) (A) (A) (A) (A)
                 (A) (A) (A) (A) (A) (A) (A) (A) (A) (A) (A) (A)
                 (A) (A) (A) (A) (A) (A) (A) (A) (A) (A) (A) (A)
                 (A) (A) (A) (A) (A) (A) (A)
       Virtual   (A) (A) (A) (A) (A) (A) (A) (A) (A) (A) (A) (A)
                 (A) (A) (A) (A) (A) (A) (A) (A) (A)
 The electronic state is 2-A.
 Alpha  occ. eigenvalues --  -20.23621 -20.22228 -20.21465 -20.21228 -20.21219
 Alpha  occ. eigenvalues --  -20.20519 -20.20293 -11.08413 -11.03922  -1.31319
 Alpha  occ. eigenvalues --   -1.28560  -1.27671  -1.26816  -1.25145  -1.22349
 Alpha  occ. eigenvalues --   -1.21187  -0.97516  -0.81154  -0.66564  -0.65666
 Alpha  occ. eigenvalues --   -0.64965  -0.63573  -0.62932  -0.62743  -0.61861
 Alpha  occ. eigenvalues --   -0.59901  -0.57295  -0.52084  -0.51353  -0.51074
 Alpha  occ. eigenvalues --   -0.50298  -0.47785  -0.45854  -0.44937  -0.42538
 Alpha  occ. eigenvalues --   -0.41073  -0.38781  -0.36158  -0.35573  -0.34982
 Alpha  occ. eigenvalues --   -0.34043  -0.33216  -0.32221  -0.25229
 Alpha virt. eigenvalues --    0.53928   0.59254   0.61163   0.63237   0.63816
 Alpha virt. eigenvalues --    0.64562   0.68480   0.69982   0.71413   0.73268
 Alpha virt. eigenvalues --    0.74807   0.78185   0.78990   0.80139   0.80479
 Alpha virt. eigenvalues --    0.81694   0.82746   0.84113   0.86321   0.87239
  Beta  occ. eigenvalues --  -20.23625 -20.22228 -20.21467 -20.21228 -20.21076
  Beta  occ. eigenvalues --  -20.20519 -20.20285 -11.06454 -11.04071  -1.31126
  Beta  occ. eigenvalues --   -1.28332  -1.27334  -1.26781  -1.24825  -1.22339
  Beta  occ. eigenvalues --   -1.21103  -0.95805  -0.78057  -0.66104  -0.65057
  Beta  occ. eigenvalues --   -0.63791  -0.63380  -0.62872  -0.62441  -0.61294
  Beta  occ. eigenvalues --   -0.57805  -0.55694  -0.51158  -0.50983  -0.50497
  Beta  occ. eigenvalues --   -0.47508  -0.47443  -0.45335  -0.44374  -0.42276
  Beta  occ. eigenvalues --   -0.40067  -0.36186  -0.35597  -0.34996  -0.34096
  Beta  occ. eigenvalues --   -0.33647  -0.32988  -0.32114
  Beta virt. eigenvalues --    0.24939   0.54427   0.60327   0.61267   0.63384
  Beta virt. eigenvalues --    0.64026   0.66275   0.70059   0.70146   0.71873
  Beta virt. eigenvalues --    0.74134   0.76158   0.79112   0.80423   0.80780
  Beta virt. eigenvalues --    0.81650   0.83380   0.84126   0.86028   0.86325
  Beta virt. eigenvalues --    0.88025
          Condensed to atoms (all electrons):
              1          2          3          4          5          6
     1  O    7.939173   0.285254  -0.020248   0.226537   0.000628  -0.001021
     2  C    0.285254   4.882947   0.358869  -0.026602  -0.019618  -0.022399
     3  C   -0.020248   0.358869   4.752871  -0.001708   0.383898   0.385311
     4  H    0.226537  -0.026602  -0.001708   0.464828  -0.000012   0.000410
     5  H    0.000628  -0.019618   0.383898  -0.000012   0.612636  -0.020365
     6  H   -0.001021  -0.022399   0.385311   0.000410  -0.020365   0.615736
     7  H   -0.000667  -0.020983   0.382090   0.000046  -0.021009  -0.022189
     8  H   -0.017335   0.378178  -0.025005   0.002008  -0.001657   0.001790
     9  H   -0.009709   0.176412  -0.015528  -0.000766  -0.001337  -0.002010
    10  H   -0.000168  -0.041011  -0.000787   0.000005   0.000142   0.000125
    11  O   -0.005882   0.000106  -0.000001   0.000165   0.000000   0.000000
    12  H    0.020182  -0.001665   0.000083  -0.003368  -0.000002   0.000000
    13  H    0.000391  -0.000010   0.000000   0.000007   0.000000   0.000000
    14  O   -0.000013   0.000001   0.000000   0.000001   0.000000   0.000000
    15  H    0.000005   0.000000   0.000000   0.000000   0.000000   0.000000
    16  H    0.000164  -0.000003   0.000000  -0.000002   0.000000   0.000000
    17  O   -0.007607   0.000147  -0.000002   0.000309   0.000000   0.000000
    18  H    0.000515  -0.000002   0.000000  -0.000035   0.000000   0.000000
    19  H    0.027439  -0.002991  -0.000024  -0.003156  -0.000003   0.000000
    20  O   -0.000002   0.000000   0.000000   0.000005   0.000000   0.000000
    21  H    0.000000   0.000000   0.000000  -0.000001   0.000000   0.000000
    22  H    0.000002   0.000000   0.000000   0.000013   0.000000   0.000000
    23  O   -0.023203   0.000603  -0.000003   0.075318   0.000000  -0.000058
    24  H    0.000660   0.000000   0.000002  -0.009115   0.000000   0.000001
    25  H    0.001066  -0.000043  -0.000002  -0.008704   0.000000   0.000015
    26  O   -0.000040   0.000000   0.000000   0.000259   0.000000   0.000000
    27  H    0.000248  -0.000001   0.000000  -0.000051   0.000000   0.000000
    28  H    0.000003   0.000000   0.000000   0.000000   0.000000   0.000000
              7          8          9         10         11         12
     1  O   -0.000667  -0.017335  -0.009709  -0.000168  -0.005882   0.020182
     2  C   -0.020983   0.378178   0.176412  -0.041011   0.000106  -0.001665
     3  C    0.382090  -0.025005  -0.015528  -0.000787  -0.000001   0.000083
     4  H    0.000046   0.002008  -0.000766   0.000005   0.000165  -0.003368
     5  H   -0.021009  -0.001657  -0.001337   0.000142   0.000000  -0.000002
     6  H   -0.022189   0.001790  -0.002010   0.000125   0.000000   0.000000
     7  H    0.619024  -0.001576   0.001054  -0.000013   0.000000   0.000000
     8  H   -0.001576   0.624181  -0.015759  -0.000636   0.000010  -0.000225
     9  H    0.001054  -0.015759   0.649091   0.192297   0.000006  -0.000163
    10  H   -0.000013  -0.000636   0.192297   0.896483   0.000000   0.000002
    11  O    0.000000   0.000010   0.000006   0.000000   7.918209   0.254479
    12  H    0.000000  -0.000225  -0.000163   0.000002   0.254479   0.558257
    13  H    0.000000   0.000000   0.000000   0.000000   0.221701  -0.030653
    14  O    0.000000   0.000000   0.000000   0.000000  -0.025279   0.001389
    15  H    0.000000   0.000000   0.000000   0.000000   0.001168  -0.000094
    16  H    0.000000   0.000000   0.000000   0.000000   0.000675  -0.000056
    17  O   -0.000007   0.000036  -0.000002   0.000000  -0.000063  -0.000060
    18  H    0.000001  -0.000001   0.000000   0.000000   0.000014   0.000024
    19  H    0.000048  -0.000536   0.000098  -0.000001  -0.000083  -0.000587
    20  O    0.000000   0.000000   0.000000   0.000000  -0.000006   0.000002
    21  H    0.000000   0.000000   0.000000   0.000000   0.000002   0.000000
    22  H    0.000000   0.000000   0.000000   0.000000   0.000184  -0.000001
    23  O   -0.000003  -0.000017   0.000019   0.000000  -0.000027   0.000043
    24  H    0.000000   0.000001   0.000000   0.000000   0.000206  -0.000082
    25  H    0.000002   0.000002  -0.000001   0.000000   0.000003   0.000004
    26  O    0.000000   0.000000   0.000000   0.000000  -0.033616   0.001249
    27  H    0.000000   0.000000   0.000000   0.000000   0.121749  -0.016280
    28  H    0.000000   0.000000   0.000000   0.000000   0.001517   0.000007
             13         14         15         16         17         18
     1  O    0.000391  -0.000013   0.000005   0.000164  -0.007607   0.000515
     2  C   -0.000010   0.000001   0.000000  -0.000003   0.000147  -0.000002
     3  C    0.000000   0.000000   0.000000   0.000000  -0.000002   0.000000
     4  H    0.000007   0.000001   0.000000  -0.000002   0.000309  -0.000035
     5  H    0.000000   0.000000   0.000000   0.000000   0.000000   0.000000
     6  H    0.000000   0.000000   0.000000   0.000000   0.000000   0.000000
     7  H    0.000000   0.000000   0.000000   0.000000  -0.000007   0.000001
     8  H    0.000000   0.000000   0.000000   0.000000   0.000036  -0.000001
     9  H    0.000000   0.000000   0.000000   0.000000  -0.000002   0.000000
    10  H    0.000000   0.000000   0.000000   0.000000   0.000000   0.000000
    11  O    0.221701  -0.025279   0.001168   0.000675  -0.000063   0.000014
    12  H   -0.030653   0.001389  -0.000094  -0.000056  -0.000060   0.000024
    13  H    0.480609   0.078980  -0.009217  -0.008961   0.000354   0.000008
    14  O    0.078980   7.929672   0.256054   0.219411  -0.025790   0.000824
    15  H   -0.009217   0.256054   0.623873  -0.031634   0.001337   0.000006
    16  H   -0.008961   0.219411  -0.031634   0.487133   0.080384  -0.009493
    17  O    0.000354  -0.025790   0.001337   0.080384   7.917851   0.246666
    18  H    0.000008   0.000824   0.000006  -0.009493   0.246666   0.517187
    19  H    0.000011   0.001008  -0.000053  -0.010215   0.252338  -0.034734
    20  O    0.000007  -0.000009   0.000001   0.000230  -0.013373   0.042454
    21  H   -0.000001   0.000005   0.000000  -0.000021   0.000654  -0.005284
    22  H   -0.000022   0.000005   0.000000  -0.000002   0.000570  -0.005321
    23  O    0.000003   0.000000   0.000000   0.000000  -0.000002   0.000006
    24  H    0.000008   0.000000   0.000000   0.000000   0.000000   0.000009
    25  H    0.000000   0.000000   0.000000   0.000000   0.000002   0.000001
    26  O    0.000962  -0.000007   0.000001   0.000002  -0.000008   0.000112
    27  H   -0.010539   0.000411  -0.000003  -0.000004   0.000013  -0.000004
    28  H   -0.000036   0.000001   0.000000   0.000000   0.000001  -0.000002
             19         20         21         22         23         24
     1  O    0.027439  -0.000002   0.000000   0.000002  -0.023203   0.000660
     2  C   -0.002991   0.000000   0.000000   0.000000   0.000603   0.000000
     3  C   -0.000024   0.000000   0.000000   0.000000  -0.000003   0.000002
     4  H   -0.003156   0.000005  -0.000001   0.000013   0.075318  -0.009115
     5  H   -0.000003   0.000000   0.000000   0.000000   0.000000   0.000000
     6  H    0.000000   0.000000   0.000000   0.000000  -0.000058   0.000001
     7  H    0.000048   0.000000   0.000000   0.000000  -0.000003   0.000000
     8  H   -0.000536   0.000000   0.000000   0.000000  -0.000017   0.000001
     9  H    0.000098   0.000000   0.000000   0.000000   0.000019   0.000000
    10  H   -0.000001   0.000000   0.000000   0.000000   0.000000   0.000000
    11  O   -0.000083  -0.000006   0.000002   0.000184  -0.000027   0.000206
    12  H   -0.000587   0.000002   0.000000  -0.000001   0.000043  -0.000082
    13  H    0.000011   0.000007  -0.000001  -0.000022   0.000003   0.000008
    14  O    0.001008  -0.000009   0.000005   0.000005   0.000000   0.000000
    15  H   -0.000053   0.000001   0.000000   0.000000   0.000000   0.000000
    16  H   -0.010215   0.000230  -0.000021  -0.000002   0.000000   0.000000
    17  O    0.252338  -0.013373   0.000654   0.000570  -0.000002   0.000000
    18  H   -0.034734   0.042454  -0.005284  -0.005321   0.000006   0.000009
    19  H    0.549676   0.000838  -0.000007  -0.000066   0.000090   0.000003
    20  O    0.000838   7.899690   0.257054   0.243786  -0.000012  -0.000060
    21  H   -0.000007   0.257054   0.621056  -0.037603   0.000002   0.000007
    22  H   -0.000066   0.243786  -0.037603   0.516949  -0.000050  -0.001740
    23  O    0.000090  -0.000012   0.000002  -0.000050   7.896078   0.232443
    24  H    0.000003  -0.000060   0.000007  -0.001740   0.232443   0.492360
    25  H   -0.000006   0.000014  -0.000001   0.000011   0.257812  -0.034227
    26  O    0.000003  -0.014165   0.000869   0.044321  -0.020595   0.063052
    27  H    0.000023   0.000363  -0.000018  -0.003379   0.000352  -0.005681
    28  H    0.000000   0.000667  -0.000090  -0.004157   0.000874  -0.006402
             25         26         27         28
     1  O    0.001066  -0.000040   0.000248   0.000003
     2  C   -0.000043   0.000000  -0.000001   0.000000
     3  C   -0.000002   0.000000   0.000000   0.000000
     4  H   -0.008704   0.000259  -0.000051   0.000000
     5  H    0.000000   0.000000   0.000000   0.000000
     6  H    0.000015   0.000000   0.000000   0.000000
     7  H    0.000002   0.000000   0.000000   0.000000
     8  H    0.000002   0.000000   0.000000   0.000000
     9  H   -0.000001   0.000000   0.000000   0.000000
    10  H    0.000000   0.000000   0.000000   0.000000
    11  O    0.000003  -0.033616   0.121749   0.001517
    12  H    0.000004   0.001249  -0.016280   0.000007
    13  H    0.000000   0.000962  -0.010539  -0.000036
    14  O    0.000000  -0.000007   0.000411   0.000001
    15  H    0.000000   0.000001  -0.000003   0.000000
    16  H    0.000000   0.000002  -0.000004   0.000000
    17  O    0.000002  -0.000008   0.000013   0.000001
    18  H    0.000001   0.000112  -0.000004  -0.000002
    19  H   -0.000006   0.000003   0.000023   0.000000
    20  O    0.000014  -0.014165   0.000363   0.000667
    21  H   -0.000001   0.000869  -0.000018  -0.000090
    22  H    0.000011   0.044321  -0.003379  -0.004157
    23  O    0.257812  -0.020595   0.000352   0.000874
    24  H   -0.034227   0.063052  -0.005681  -0.006402
    25  H    0.611597   0.001153   0.000013  -0.000055
    26  O    0.001153   7.981161   0.185304   0.256531
    27  H    0.000013   0.185304   0.462550  -0.024084
    28  H   -0.000055   0.256531  -0.024084   0.609631
 Mulliken atomic charges:
              1
     1  O   -0.416371
     2  C    0.052811
     3  C   -0.199818
     4  H    0.283607
     5  H    0.066700
     6  H    0.064653
     7  H    0.064183
     8  H    0.056540
     9  H    0.026299
    10  H   -0.046438
    11  O   -0.455237
    12  H    0.217516
    13  H    0.276398
    14  O   -0.436665
    15  H    0.158559
    16  H    0.272392
    17  O   -0.453748
    18  H    0.247049
    19  H    0.220887
    20  O   -0.417484
    21  H    0.163378
    22  H    0.246500
    23  O   -0.419673
    24  H    0.268556
    25  H    0.171344
    26  O   -0.466547
    27  H    0.289015
    28  H    0.165594
 Sum of Mulliken atomic charges =   0.00000
 Mulliken charges with hydrogens summed into heavy atoms:
              1
     1  O   -0.132765
     2  C    0.089213
     3  C   -0.004283
    11  O    0.038678
    14  O   -0.005715
    17  O    0.014189
    20  O   -0.007606
    23  O    0.020227
    26  O   -0.011938
 Sum of Mulliken charges with hydrogens summed into heavy atoms =   0.00000
          Atomic-Atomic Spin Densities.
              1          2          3          4          5          6
     1  O    0.060681  -0.034917   0.000323  -0.000689   0.000006   0.000022
     2  C   -0.034917   0.772622  -0.015718  -0.001464  -0.001519  -0.002433
     3  C    0.000323  -0.015718  -0.054763   0.000160   0.001868   0.002328
     4  H   -0.000689  -0.001464   0.000160  -0.000827   0.000003   0.000108
     5  H    0.000006  -0.001519   0.001868   0.000003   0.005101   0.000158
     6  H    0.000022  -0.002433   0.002328   0.000108   0.000158   0.008729
     7  H    0.000346  -0.004476   0.000624  -0.000070  -0.001180  -0.001807
     8  H    0.000442  -0.012465   0.001885   0.000044   0.000258   0.000087
     9  H    0.000912   0.031252   0.002782   0.000030  -0.000025   0.000049
    10  H    0.001354  -0.052771   0.001671   0.000166   0.000249   0.000426
    11  O    0.000019   0.000020   0.000000   0.000004   0.000000   0.000000
    12  H   -0.000109  -0.000283   0.000002   0.000022   0.000000   0.000001
    13  H   -0.000002  -0.000001   0.000000   0.000000   0.000000   0.000000
    14  O    0.000000   0.000000   0.000000   0.000000   0.000000   0.000000
    15  H    0.000000   0.000000   0.000000   0.000000   0.000000   0.000000
    16  H    0.000002  -0.000001   0.000000   0.000000   0.000000   0.000000
    17  O   -0.000181   0.000088   0.000001   0.000018   0.000000   0.000000
    18  H    0.000010  -0.000003   0.000000  -0.000003   0.000000   0.000000
    19  H    0.000683  -0.000617  -0.000029  -0.000062  -0.000001  -0.000008
    20  O    0.000000   0.000000   0.000000   0.000000   0.000000   0.000000
    21  H    0.000000   0.000000   0.000000   0.000000   0.000000   0.000000
    22  H    0.000000   0.000000   0.000000   0.000000   0.000000   0.000000
    23  O    0.000017   0.000051  -0.000003   0.000476   0.000000  -0.000012
    24  H   -0.000002  -0.000001   0.000000  -0.000007   0.000000   0.000000
    25  H   -0.000004  -0.000003   0.000001  -0.000017   0.000000   0.000004
    26  O    0.000001   0.000000   0.000000   0.000001   0.000000   0.000000
    27  H   -0.000002   0.000000   0.000000   0.000000   0.000000   0.000000
    28  H    0.000000   0.000000   0.000000   0.000000   0.000000   0.000000
              7          8          9         10         11         12
     1  O    0.000346   0.000442   0.000912   0.001354   0.000019  -0.000109
     2  C   -0.004476  -0.012465   0.031252  -0.052771   0.000020  -0.000283
     3  C    0.000624   0.001885   0.002782   0.001671   0.000000   0.000002
     4  H   -0.000070   0.000044   0.000030   0.000166   0.000004   0.000022
     5  H   -0.001180   0.000258  -0.000025   0.000249   0.000000   0.000000
     6  H   -0.001807   0.000087   0.000049   0.000426   0.000000   0.000001
     7  H    0.031696  -0.000549  -0.000060  -0.000103   0.000000  -0.000001
     8  H   -0.000549  -0.033005   0.003361   0.001790  -0.000002   0.000027
     9  H   -0.000060   0.003361  -0.275473  -0.025429   0.000000   0.000022
    10  H   -0.000103   0.001790  -0.025429   0.691018  -0.000003   0.000041
    11  O    0.000000  -0.000002   0.000000  -0.000003  -0.000646   0.000084
    12  H   -0.000001   0.000027   0.000022   0.000041   0.000084   0.000244
    13  H    0.000000   0.000000   0.000000   0.000000   0.000017  -0.000007
    14  O    0.000000   0.000000   0.000000   0.000000  -0.000001   0.000000
    15  H    0.000000   0.000000   0.000000   0.000000   0.000000   0.000000
    16  H    0.000000  -0.000001   0.000000   0.000000   0.000000  -0.000001
    17  O   -0.000011   0.000012   0.000000   0.000000  -0.000001   0.000003
    18  H    0.000001   0.000000   0.000000   0.000000   0.000000   0.000000
    19  H    0.000082  -0.000088  -0.000011  -0.000007   0.000003   0.000002
    20  O    0.000000   0.000000   0.000000   0.000000   0.000000   0.000000
    21  H    0.000000   0.000000   0.000000   0.000000   0.000000   0.000000
    22  H    0.000000   0.000000   0.000000   0.000000   0.000000   0.000000
    23  O    0.000002  -0.000001   0.000002  -0.000006   0.000000   0.000001
    24  H    0.000000   0.000000   0.000000   0.000000   0.000000   0.000000
    25  H   -0.000001   0.000000   0.000000   0.000001   0.000000   0.000000
    26  O    0.000000   0.000000   0.000000   0.000000  -0.000001   0.000000
    27  H    0.000000   0.000000   0.000000   0.000000   0.000012  -0.000004
    28  H    0.000000   0.000000   0.000000   0.000000   0.000000   0.000000
             13         14         15         16         17         18
     1  O   -0.000002   0.000000   0.000000   0.000002  -0.000181   0.000010
     2  C   -0.000001   0.000000   0.000000  -0.000001   0.000088  -0.000003
     3  C    0.000000   0.000000   0.000000   0.000000   0.000001   0.000000
     4  H    0.000000   0.000000   0.000000   0.000000   0.000018  -0.000003
     5  H    0.000000   0.000000   0.000000   0.000000   0.000000   0.000000
     6  H    0.000000   0.000000   0.000000   0.000000   0.000000   0.000000
     7  H    0.000000   0.000000   0.000000   0.000000  -0.000011   0.000001
     8  H    0.000000   0.000000   0.000000  -0.000001   0.000012   0.000000
     9  H    0.000000   0.000000   0.000000   0.000000   0.000000   0.000000
    10  H    0.000000   0.000000   0.000000   0.000000   0.000000   0.000000
    11  O    0.000017  -0.000001   0.000000   0.000000  -0.000001   0.000000
    12  H   -0.000007   0.000000   0.000000  -0.000001   0.000003   0.000000
    13  H    0.000010  -0.000003   0.000000  -0.000001   0.000001   0.000000
    14  O   -0.000003  -0.000023   0.000001   0.000022   0.000003   0.000000
    15  H    0.000000   0.000001  -0.000001  -0.000001   0.000000   0.000000
    16  H   -0.000001   0.000022  -0.000001  -0.000031  -0.000043   0.000003
    17  O    0.000001   0.000003   0.000000  -0.000043   0.003117  -0.000064
    18  H    0.000000   0.000000   0.000000   0.000003  -0.000064  -0.000105
    19  H   -0.000001  -0.000003   0.000000   0.000023  -0.000335   0.000034
    20  O    0.000000   0.000000   0.000000   0.000000   0.000000   0.000015
    21  H    0.000000   0.000000   0.000000   0.000000   0.000000  -0.000001
    22  H    0.000000   0.000000   0.000000   0.000000   0.000000   0.000000
    23  O    0.000000   0.000000   0.000000   0.000000   0.000000   0.000000
    24  H    0.000000   0.000000   0.000000   0.000000   0.000000   0.000000
    25  H    0.000000   0.000000   0.000000   0.000000   0.000000   0.000000
    26  O    0.000000   0.000000   0.000000   0.000000   0.000000   0.000000
    27  H   -0.000001   0.000000   0.000000   0.000000   0.000000   0.000000
    28  H    0.000000   0.000000   0.000000   0.000000   0.000000   0.000000
             19         20         21         22         23         24
     1  O    0.000683   0.000000   0.000000   0.000000   0.000017  -0.000002
     2  C   -0.000617   0.000000   0.000000   0.000000   0.000051  -0.000001
     3  C   -0.000029   0.000000   0.000000   0.000000  -0.000003   0.000000
     4  H   -0.000062   0.000000   0.000000   0.000000   0.000476  -0.000007
     5  H   -0.000001   0.000000   0.000000   0.000000   0.000000   0.000000
     6  H   -0.000008   0.000000   0.000000   0.000000  -0.000012   0.000000
     7  H    0.000082   0.000000   0.000000   0.000000   0.000002   0.000000
     8  H   -0.000088   0.000000   0.000000   0.000000  -0.000001   0.000000
     9  H   -0.000011   0.000000   0.000000   0.000000   0.000002   0.000000
    10  H   -0.000007   0.000000   0.000000   0.000000  -0.000006   0.000000
    11  O    0.000003   0.000000   0.000000   0.000000   0.000000   0.000000
    12  H    0.000002   0.000000   0.000000   0.000000   0.000001   0.000000
    13  H   -0.000001   0.000000   0.000000   0.000000   0.000000   0.000000
    14  O   -0.000003   0.000000   0.000000   0.000000   0.000000   0.000000
    15  H    0.000000   0.000000   0.000000   0.000000   0.000000   0.000000
    16  H    0.000023   0.000000   0.000000   0.000000   0.000000   0.000000
    17  O   -0.000335   0.000000   0.000000   0.000000   0.000000   0.000000
    18  H    0.000034   0.000015  -0.000001   0.000000   0.000000   0.000000
    19  H   -0.000958  -0.000001   0.000000   0.000000   0.000005  -0.000001
    20  O   -0.000001  -0.000028   0.000001   0.000001   0.000000   0.000000
    21  H    0.000000   0.000001  -0.000001   0.000000   0.000000   0.000000
    22  H    0.000000   0.000001   0.000000   0.000001   0.000000   0.000000
    23  O    0.000005   0.000000   0.000000   0.000000  -0.001358   0.000026
    24  H   -0.000001   0.000000   0.000000   0.000000   0.000026   0.000036
    25  H   -0.000001   0.000000   0.000000   0.000000   0.000024  -0.000007
    26  O    0.000000   0.000000   0.000000   0.000000  -0.000001  -0.000008
    27  H    0.000000   0.000000   0.000000   0.000000   0.000000   0.000000
    28  H    0.000000   0.000000   0.000000   0.000000   0.000000   0.000000
             25         26         27         28
     1  O   -0.000004   0.000001  -0.000002   0.000000
     2  C   -0.000003   0.000000   0.000000   0.000000
     3  C    0.000001   0.000000   0.000000   0.000000
     4  H   -0.000017   0.000001   0.000000   0.000000
     5  H    0.000000   0.000000   0.000000   0.000000
     6  H    0.000004   0.000000   0.000000   0.000000
     7  H   -0.000001   0.000000   0.000000   0.000000
     8  H    0.000000   0.000000   0.000000   0.000000
     9  H    0.000000   0.000000   0.000000   0.000000
    10  H    0.000001   0.000000   0.000000   0.000000
    11  O    0.000000  -0.000001   0.000012   0.000000
    12  H    0.000000   0.000000  -0.000004   0.000000
    13  H    0.000000   0.000000  -0.000001   0.000000
    14  O    0.000000   0.000000   0.000000   0.000000
    15  H    0.000000   0.000000   0.000000   0.000000
    16  H    0.000000   0.000000   0.000000   0.000000
    17  O    0.000000   0.000000   0.000000   0.000000
    18  H    0.000000   0.000000   0.000000   0.000000
    19  H   -0.000001   0.000000   0.000000   0.000000
    20  O    0.000000   0.000000   0.000000   0.000000
    21  H    0.000000   0.000000   0.000000   0.000000
    22  H    0.000000   0.000000   0.000000   0.000000
    23  O    0.000024  -0.000001   0.000000   0.000000
    24  H   -0.000007  -0.000008   0.000000   0.000000
    25  H    0.000047   0.000000   0.000000   0.000000
    26  O    0.000000   0.000023  -0.000004   0.000000
    27  H    0.000000  -0.000004   0.000005   0.000000
    28  H    0.000000   0.000000   0.000000  -0.000001
 Mulliken atomic spin densities:
              1
     1  O    0.028912
     2  C    0.677359
     3  C   -0.058869
     4  H   -0.002110
     5  H    0.004917
     6  H    0.007652
     7  H    0.024494
     8  H   -0.038204
     9  H   -0.262588
    10  H    0.618398
    11  O   -0.000494
    12  H    0.000044
    13  H    0.000011
    14  O   -0.000004
    15  H   -0.000001
    16  H   -0.000029
    17  O    0.002611
    18  H   -0.000114
    19  H   -0.001293
    20  O   -0.000011
    21  H   -0.000001
    22  H    0.000001
    23  O   -0.000779
    24  H    0.000038
    25  H    0.000043
    26  O    0.000011
    27  H    0.000005
    28  H   -0.000001
 Sum of Mulliken atomic spin densities =   1.00000
 APT atomic charges:
              1
     1  O   -0.755576
     2  C   -0.314949
     3  C   -1.152306
     4  H    0.385051
     5  H    0.760636
     6  H    0.266700
     7  H    0.212590
     8  H    0.420432
     9  H   -0.146712
[...]
 ,-0.00005044,0.00005311,0.00009730,0.00000311,-0.00001642,-0.00003748,
 0.00004453,0.00032772,0.00017436,0.00010799,-0.00009228,-0.00003981,0.
 00024167,-0.00008864,-0.00028714,0.00000746,-0.00027533,0.00039408,-0.
 00021580,-0.00005295,0.00004063,0.00013100,0.00081616,-0.00054881,-0.0
 0162694,-0.00120516,0.00014331,0.00457259,0.00462058,0.00050720,0.0005
 5081,-0.00052999,-0.00031950,-0.05890869,0.01862298,-0.06575494,0.0051
 2713,0.02530439,0.06365857,0.00139949,0.00035126,0.00048738,-0.0007142
 1,0.00017268,0.00010000,0.00015929,0.00000215,-0.00003655,-0.00164024,
 -0.00025241,0.00004464,0.00002846,-0.00004011,0.00005415,-0.00001134,0
 .00001722,0.00000786,-0.00000162,-0.00001714,-0.00000352,0.00013024,-0
 .00003623,0.00000466,0.00011931,-0.00012206,-0.00021413,-0.00000278,0.
 00004161,0.00008945,0.00157786,0.00134923,-0.00152889,-0.00082405,0.00
 014048,0.00024896,-0.00025374,-0.00177765,-0.00013444,-0.00018525,0.00
 101132,0.00069765,0.00025457,0.00005420,0.00000804,-0.00034455,-0.0004
 6688,-0.00070240,-0.00237324,-0.00024640,0.00283816,0.00829655,-0.0006
 6137,-0.01002621,-0.00110330,-0.00057461,-0.00085747,-0.07766213,0.004
 89425,-0.06041108,-0.00089951,0.02335386,0.05096417,0.09954194,-0.0008
 3447,-0.00257223,-0.00209212,0.00027198,-0.00022510,0.00014983,-0.0000
 6830,-0.00001271,0.00001544,0.00374077,0.00303207,0.00040794,-0.000015
 70,0.00000308,-0.00003137,0.00003337,-0.00003693,0.00000583,-0.0000181
 4,0.00004099,-0.00002780,-0.00018671,0.00000282,-0.00000618,0.00003899
 ,-0.00004185,-0.00010198,-0.00002451,0.00000262,0.00002109,-0.00742396
 ,-0.00783515,0.00139223,0.00047797,0.00000963,0.00065273,-0.00086995,0
 .00393530,0.00306687,0.00029454,-0.00153699,-0.00332312,0.00037988,0.0
 0022628,-0.00011682,-0.00076946,-0.00248750,0.00286976,0.00510383,0.00
 218784,-0.00099267,-0.01292709,-0.00471548,-0.00489517,-0.00146370,0.0
 0228060,0.00133362,0.03983737,-0.10744386,-0.11955356,-0.00477827,-0.0
 1403844,-0.04648078,-0.02656556,0.14281800,-0.00162777,-0.00218469,-0.
 00495945,0.00059496,-0.00023820,0.00042674,-0.00013214,-0.00001933,-0.
 00000353,0.00367085,0.00297942,0.00141099,-0.00000943,0.00003339,-0.00
 008901,0.00001744,-0.00002569,0.00000617,-0.00007279,0.00006821,-0.000
 07534,-0.00020979,0.00003908,-0.00001883,0.00005207,-0.00007638,-0.000
 16660,-0.00005001,0.00002037,0.00001402,-0.01668438,-0.01456627,0.0048
 7142,0.00206328,-0.00125849,0.00192808,-0.00006867,0.00863738,0.005009
 30,0.00020955,-0.00352325,-0.00651589,-0.00016836,0.00002710,-0.000234
 39,0.00004308,-0.00414072,0.00644741,0.00919819,0.00543651,-0.00488419
 ,-0.02218773,-0.00730936,-0.00071978,-0.00182716,0.00274763,0.00276200
 ,0.00913423,-0.18500918,-0.47091113,-0.01601535,0.02280015,0.00848136,
 0.01970240,0.16065989,0.46554993,-0.05539957,-0.06128207,0.00100437,0.
 01995367,-0.01401067,-0.00189055,-0.00161488,0.00015361,0.00076804,-0.
 00764338,0.01303959,-0.01674588,-0.00023122,0.00053663,-0.00073241,-0.
 00005490,-0.00016473,-0.00026940,-0.00005608,0.00021169,0.00000094,-0.
 00549370,0.00109604,0.00007137,-0.00168859,0.00201922,0.00331699,0.000
 20382,-0.00062235,-0.00118591,0.01292761,0.00717492,-0.00272799,-0.005
 89390,0.00441147,-0.00659468,-0.00034051,-0.00211160,-0.00119993,0.000
 52687,0.00053197,0.00168538,0.00017801,0.00043001,0.00005737,-0.000785
 34,0.00138044,-0.00176863,0.00384712,-0.00186614,-0.00001074,-0.004695
 49,-0.00197436,-0.00057654,-0.00532874,0.00573926,0.00482779,0.0030193
 0,0.00309483,0.00326168,-0.00000531,-0.00002395,0.00005664,0.00144571,
 -0.00501916,-0.00920650,0.51626077,-0.06398518,-0.03346303,-0.00172931
 ,0.01549859,-0.01544362,-0.00141903,-0.00144743,-0.00028097,0.00077607
 ,0.02367304,-0.02679035,-0.00224905,-0.00010120,0.00078587,-0.00073823
 ,-0.00035971,0.00017119,-0.00042717,-0.00007415,0.00024856,-0.00007256
 ,-0.00522793,0.00147116,-0.00005634,-0.00168793,0.00180179,0.00319638,
 0.00021740,-0.00048119,-0.00116509,-0.00089099,-0.00262029,0.00204266,
 -0.00241654,0.00220704,-0.00441877,-0.00013456,0.00252660,0.00081780,0
 .00059640,-0.00192937,-0.00032212,-0.00028554,0.00018845,-0.00005382,-
 0.00035423,0.00140514,-0.00076065,0.00162316,-0.00142723,-0.00106341,-
 0.00177485,-0.00066763,0.00061991,-0.00283955,0.00399900,0.00408665,0.
 00187281,0.00094986,-0.00159641,-0.00012330,-0.00024903,0.00019140,-0.
 00152785,0.00079651,0.00408877,-0.11570468,0.34296965,-0.00648695,-0.0
 0545104,0.01665892,0.00383186,-0.00223664,-0.00040465,-0.00046340,0.00
 023400,0.00021637,0.00990194,0.01449997,-0.04493473,-0.00015396,0.0000
 3425,-0.00012954,0.00011787,-0.00016477,-0.00004697,0.00007819,0.00001
 433,0.00011839,-0.00099861,0.00010890,-0.00005581,-0.00055696,0.000526
 10,0.00095026,0.00009102,-0.00019075,-0.00033428,0.00439058,0.00314905
 ,-0.00061169,-0.00138606,0.00089991,-0.00195823,-0.00005290,-0.0013222
 7,-0.00096681,0.00017302,0.00038136,0.00124691,0.00004405,0.00010682,0
 .00003243,-0.00025399,0.00106563,-0.00133028,0.00089887,-0.00106413,0.
 00070777,-0.00149500,-0.00004089,-0.00007100,-0.00062690,0.00181351,0.
 00074715,0.00095960,0.00083832,0.00140915,0.00032821,-0.00030951,0.000
 05764,-0.00017760,-0.00126401,-0.00443061,-0.07215776,-0.28366541,0.68
 989431,0.01068834,0.01141822,-0.00130153,-0.00379179,0.00277088,0.0007
 0278,0.00055764,-0.00000436,-0.00025912,-0.03420712,-0.01332194,-0.004
 54597,0.00013639,-0.00009856,0.00017490,-0.00015925,0.00013766,0.00002
 513,-0.00004715,-0.00007269,-0.00004404,0.00133609,-0.00013667,-0.0000
 0026,0.00045428,-0.00057237,-0.00091772,-0.00003129,0.00022590,0.00034
 013,-0.01766573,-0.01105434,0.00537583,0.00215530,-0.00427401,0.003499
 08,0.00009489,0.00356208,0.00195223,-0.00022250,-0.00142433,-0.0021178
 2,-0.00030843,-0.00026820,-0.00010262,0.00054672,-0.00113867,0.0017918
 7,-0.00233472,0.00130951,-0.00108757,0.00413771,0.00083655,0.00060946,
 0.00150422,-0.00274427,-0.00134092,-0.00229718,-0.00310073,-0.00565401
 ,-0.00055538,0.00031824,-0.00009873,-0.00216665,0.00879466,0.01680082,
 -0.28002008,0.17795943,-0.11502948,0.29937553,-0.00817797,-0.01519769,
 0.00309127,0.00281620,-0.00218460,-0.00042211,-0.00018768,0.00008537,0
 .00016830,0.01588605,0.03348545,-0.00627834,-0.00011449,-0.00004845,-0
 .00005632,0.00020143,-0.00018702,0.00004052,0.00004070,0.00003451,0.00
 004881,-0.00110363,-0.00002983,0.00003247,-0.00015282,0.00028907,0.000
 35364,0.00000838,-0.00014467,-0.00011074,0.01706711,0.01321305,-0.0062
 7463,-0.00453533,0.00273858,-0.00278411,-0.00006265,-0.00592331,-0.002
 68464,-0.00008700,0.00305076,0.00285920,0.00052584,0.00026673,0.000151
 10,-0.00051358,0.00041921,-0.00175814,0.00238170,-0.00091164,0.0016799
 4,-0.00337216,-0.00103911,-0.00136162,-0.00219574,0.00235338,0.0006222
 8,0.00099323,0.00241222,0.00663151,0.00045769,0.00009194,-0.00002374,0
 .00470546,-0.00868781,-0.01824778,0.13502071,-0.18157065,0.10723712,-0
 .13450790,0.18988976,0.00782580,0.00879445,-0.00296100,-0.00288759,0.0
 0206170,0.00086929,0.00037734,-0.00006845,-0.00021994,-0.02138913,-0.0
 1738498,0.00242908,0.00011347,-0.00004258,0.00010120,-0.00013691,0.000
 11736,0.00000599,-0.00006664,-0.00001406,-0.00007774,0.00096727,-0.000
 07766,-0.00004632,0.00037685,-0.00048049,-0.00078865,-0.00006616,0.000
 18046,0.00026261,-0.00946919,-0.00817007,0.00223677,0.00255867,-0.0015
 3251,0.00287543,-0.00010917,0.00366814,0.00222777,-0.00007082,-0.00167
 195,-0.00256879,-0.00019646,-0.00013984,-0.00009168,0.00032822,-0.0014
 0535,0.00214226,-0.00098859,0.00152372,-0.00144825,0.00136021,-0.00030
 400,0.00033756,0.00056864,-0.00164151,-0.00041457,-0.00043623,-0.00066
 623,-0.00338532,-0.00079922,0.00058345,-0.00007823,0.00119013,-0.00024
 163,0.01058123,-0.03369314,0.07619585,-0.12138099,0.08172141,-0.086411
 80,0.16385905,-0.00435393,-0.00360985,-0.00349170,0.00129997,-0.001253
 97,0.00049199,0.00000883,-0.00015450,-0.00000293,0.00765160,0.00809776
 ,0.01737595,0.00007163,0.00013831,-0.00010891,-0.00018865,0.00009939,0
 .00002917,-0.00010303,0.00001258,-0.00012102,-0.00047287,0.00016972,-0
 .00006305,-0.00006762,0.00008111,0.00007751,-0.00001965,-0.00001507,-0
 .00005872,0.00044949,-0.00006990,-0.00023091,-0.00015549,0.00050807,-0
 .00022365,0.00001727,0.00031565,0.00021127,0.00001116,-0.00014540,-0.0
 0027050,-0.00001542,0.00000854,-0.00000011,0.00001585,-0.00014907,0.00
 026482,-0.00004481,0.00012525,-0.00042853,0.00034137,-0.00005990,0.000
 11474,-0.00031234,0.00007709,0.00055669,-0.00031708,-0.00026534,0.0000
 1405,0.00000168,0.00001664,-0.00000496,0.00009899,0.00036314,-0.000273
 77,-0.14284801,-0.06345631,0.20944497,0.02106900,0.01070769,-0.0448818
 3,0.12410780,-0.00046044,-0.00097574,-0.00262896,-0.00044094,-0.000102
 32,0.00023085,0.00011166,0.00001320,-0.00001908,-0.00089367,-0.0011608
 5,0.01162352,0.00005005,-0.00003532,0.00000341,0.00001390,0.00004488,0
 .00001329,-0.00006148,-0.00000501,-0.00004689,0.00001311,-0.00000394,0
 .00001624,0.00013078,-0.00011982,-0.00024841,-0.00001938,0.00003543,0.
 00008581,0.00022641,-0.00002144,-0.00039284,-0.00008752,0.00011495,0.0
 0020910,-0.00002946,0.00005613,0.00024289,-0.00007868,0.00017042,-0.00
 044254,0.00005925,0.00000711,-0.00000342,0.00003698,-0.00066113,0.0006
 9124,0.00016667,0.00062203,-0.00048191,-0.00007811,-0.00058375,-0.0000
 9375,-0.00052300,-0.00020730,0.00029379,-0.00003357,0.00038315,0.00005
 549,-0.00035439,0.00040089,-0.00014581,0.00066666,-0.00065022,0.000839
 21,-0.02331780,-0.06831038,0.13604049,-0.01999653,-0.00505201,0.032166
 67,0.04317642,0.07743984,-0.00222716,-0.00239197,0.00060290,-0.0004144
 8,-0.00016873,-0.00020279,0.00004917,0.00003175,0.00001541,-0.00052033
 ,-0.00144967,0.00199955,0.00000672,-0.00002692,0.00002768,0.00001429,0
 .00002247,-0.00002362,0.00001056,-0.00001592,0.00002577,-0.00001269,-0
 .00000221,0.00004998,0.00001322,-0.00002467,-0.00001695,0.00002676,0.0
 0001808,0.00002952,-0.00035326,0.00036909,0.00025878,-0.00017347,-0.00
 047377,-0.00004654,0.00002407,-0.00055015,-0.00031674,-0.00006512,0.00
 035776,0.00031863,0.00002571,-0.00001941,0.00000887,0.00002724,0.00003
 132,-0.00015996,-0.00016199,-0.00004189,0.00018980,0.00036509,0.000162
 44,-0.00002755,0.00014151,-0.00018082,-0.00023106,-0.00036223,-0.00032
 160,0.00017636,0.00009122,-0.00002578,-0.00003277,0.00008574,0.0003359
 8,-0.00051001,0.15212911,0.18925178,-0.53845081,0.02950686,-0.00738093
 ,-0.01854493,-0.17760239,-0.17644471,0.55280470,-0.00676158,-0.0021687
 2,-0.00646446,0.00336285,-0.00111007,-0.00017495,-0.00054286,0.0000802
 4,0.00009830,0.00935881,0.00850333,0.00119000,-0.00009110,0.00010964,-
 0.00019928,0.00006913,-0.00007934,-0.00002650,-0.00002920,0.00007765,-
 0.00002308,-0.00056042,0.00011257,0.00002278,-0.00027885,0.00033096,0.
 00060121,-0.00001373,-0.00011841,-0.00027977,-0.06679942,-0.07331807,0
 .03170645,0.00695530,-0.00554427,0.00582806,-0.00623077,0.01947885,0.0
 1297987,0.00169457,-0.00981539,-0.00975311,-0.00015264,0.00037070,-0.0
 0040893,-0.00070840,-0.00246856,0.00487939,0.00358653,0.00239365,-0.00
 370741,-0.00960274,-0.00301884,0.00015439,-0.00128553,0.00185505,0.002
 27611,0.01552185,0.00838124,0.01217225,0.00120098,-0.00178957,-0.00079
 078,-0.02686995,-0.00938781,-0.01970099,-0.02581388,0.03484381,-0.0233
 2171,-0.03152686,-0.00374020,0.00666221,-0.00512792,0.00224391,-0.0016
 4645,0.63767587,0.00475745,0.01504935,-0.00609882,-0.00170579,0.001831
 35,0.00030234,0.00011525,-0.00000095,-0.00017782,-0.02389181,-0.023976
 09,0.00046925,0.00011068,0.00007076,0.00002620,-0.00022933,0.00020330,
 -0.00008030,-0.00004695,-0.00003034,-0.00004340,0.00109125,0.00006546,
 0.00003213,0.00011006,-0.00022377,-0.00017098,0.00000903,0.00013876,0.
 00003655,-0.08054101,-0.03937824,0.02781685,0.00515002,-0.01110819,0.0
 0841660,-0.00097043,0.01811134,0.00941221,0.00062749,-0.00791900,-0.00
 751338,-0.00098296,-0.00030311,-0.00041875,0.00067083,-0.00169034,0.00
 417440,-0.00348295,0.00208948,-0.00315813,0.00610160,0.00124487,0.0015
 2650,0.00207284,-0.00333161,-0.00071244,0.00144246,0.00000847,-0.02244
 373,-0.00245571,0.00057514,-0.00009718,-0.00169668,-0.01895010,0.00535
 870,0.06147501,-0.02269795,0.03347675,-0.03130431,-0.01450789,-0.02911
 171,0.00532569,-0.00155968,-0.00073544,0.20684178,0.27776972,-0.000354
 42,-0.00453744,0.00876189,-0.00008758,-0.00060372,-0.00074973,0.000094
 85,0.00002755,0.00010896,0.00740767,0.00736023,-0.00210260,-0.00003508
 ,-0.00006995,0.00008869,0.00007763,-0.00005441,0.00002240,0.00010371,-
 0.00007071,0.00011034,-0.00027466,-0.00006180,0.00002157,-0.00012220,0
 .00019935,0.00028680,0.00007059,-0.00008651,-0.00002962,0.05725498,0.0
 4814079,0.00516182,-0.00411242,0.00705394,-0.00770015,0.00428397,-0.01
 883533,-0.01279964,-0.00099875,0.00918089,0.01165889,0.00037237,-0.000
 09847,0.00045025,0.00010796,0.00506474,-0.00826791,-0.00521038,-0.0051
 2207,0.00622512,0.01636268,0.00606165,-0.00034395,0.00107159,-0.001360
 38,-0.00238086,-0.00085508,-0.02930183,-0.04495912,-0.00201766,-0.0007
 5462,-0.00553433,0.00302386,0.00416756,-0.00837397,-0.02642644,0.01998
 393,-0.00052448,-0.00176571,0.00329087,-0.02705067,-0.00096654,-0.0015
 0532,0.00235967,0.24002817,-0.00087367,0.53181227,0.00542242,-0.011370
 48,0.01664584,-0.00300763,-0.00052781,0.00001735,0.00073777,-0.0000976
 6,0.00002512,0.01182083,0.01216590,-0.00257191,0.00002360,-0.00023659,
 0.00027682,0.00012011,-0.00007882,0.00010536,0.00009569,-0.00008909,0.
 00008823,-0.00029769,-0.00020571,-0.00004380,0.00026605,-0.00023418,-0
 .00064488,0.00002347,0.00003647,0.00035116,-0.05524250,0.03543520,-0.0
 0683852,-0.03022803,0.00146571,-0.00448014,0.01426466,-0.04573281,-0.0
 2782355,-0.00327696,0.02531373,0.02406356,0.00095066,-0.00023054,0.001
 21397,0.00079216,0.00570300,-0.01179981,-0.00248699,-0.00574006,0.0084
 6112,0.00964407,0.00380067,-0.00052986,0.00033896,0.00011122,-0.002981
 24,-0.00640135,-0.00791376,-0.01074361,-0.00007689,0.00035885,-0.00016
 438,-0.00235684,0.01270121,0.03139728,-0.02067126,0.00380020,-0.007757
 55,0.03589004,-0.02483869,0.01415993,-0.00088552,-0.00022740,0.0008861
 2,-0.13344889,-0.03510974,-0.01713014,0.18699695,0.00302793,-0.0111478
 9,0.01271592,-0.00173967,-0.00051709,0.00005753,0.00039929,-0.00012068
 ,0.00004871,0.01204010,0.00972265,-0.00002553,-0.00000986,-0.00013995,
 0.00014850,0.00011601,-0.00009783,0.00009695,0.00006142,-0.00003698,0.
 00004505,-0.00044059,-0.00013863,-0.00008545,0.00013376,-0.00009609,-0
 .00039126,-0.00001111,-0.00001295,0.00020594,0.01468687,-0.05299487,-0
 .00205600,0.00496032,0.02476255,-0.01456692,-0.01367499,-0.03769748,-0
 .00841170,-0.00091780,0.01512166,0.01450401,0.00129196,0.00028977,0.00
 094358,-0.00016209,0.00417057,-0.00904179,-0.00097406,-0.00459484,0.00
 664585,0.00586913,0.00282377,-0.00092552,-0.00024325,0.00103760,-0.001
 64440,-0.00463681,-0.00705108,-0.00776078,0.00054574,0.00015179,-0.000
 67726,0.00110410,0.01413486,0.02104592,-0.01499659,0.00288240,-0.00649
 960,0.01573030,-0.02848187,0.01974307,-0.00058814,0.00010237,-0.000413
 82,-0.07035156,-0.10303660,0.01427329,0.04149478,0.16728689,-0.0004878
 1,0.00510240,-0.00823047,0.00052132,0.00031037,0.00050558,-0.00005354,
 0.00003204,-0.00010253,-0.00644195,-0.00393733,0.00068252,0.00002583,0
 .00004196,-0.00004922,-0.00005984,0.00004637,-0.00003154,-0.00006309,0
 .00004304,-0.00006691,0.00026744,0.00004349,0.00001488,0.00010407,-0.0
 0014364,-0.00015546,-0.00004449,0.00007013,0.00000213,0.01603276,0.003
 33126,-0.05766111,-0.01082977,-0.01530905,0.01146481,-0.01475160,0.014
 54855,0.01567896,0.00145530,-0.01074842,-0.01196048,-0.00002420,0.0002
 6829,-0.00045097,-0.00062498,-0.00424439,0.00551770,0.00140290,0.00325
 541,-0.00304063,-0.00357586,-0.00169887,-0.00100543,-0.00117594,0.0001
 4583,0.00059535,0.00146229,0.00173290,0.00442767,-0.00001062,0.0001747
 8,-0.00015280,0.00503265,-0.00002231,-0.01220908,0.00785790,-0.0027267
 1,0.00264676,-0.00900207,0.01387967,-0.00681604,0.00040587,0.00034753,
 -0.00013334,0.06404756,0.06495227,-0.12059558,-0.01733623,-0.03993539,
 0.16410076,-0.00087932,0.00002600,0.00003564,0.00044437,-0.00015425,-0
 .00022704,-0.00010613,0.00001759,0.00004150,0.00104378,0.00011770,-0.0
 0005286,-0.00001652,0.00002166,-0.00002702,0.00000527,-0.00000644,-0.0
 0001220,0.00001174,-0.00000096,0.00001553,-0.00007665,0.00002362,0.000
 01374,-0.00009118,0.00010698,0.00020086,0.00001879,-0.00003608,-0.0000
 7075,-0.00204413,-0.00280329,0.00517796,0.00117037,-0.00017636,-0.0002
 7844,0.00003188,0.00114057,0.00007636,0.00009611,-0.00047607,-0.000075
 32,-0.00009851,-0.00002546,-0.00003817,0.00004033,0.00031718,-0.000045
 70,-0.00001762,-0.00015234,-0.00017680,-0.00033953,0.00001182,0.000289
 32,0.00025573,0.00001464,0.00014897,-0.00039210,0.00182600,0.00419694,
 0.00010323,0.00007039,0.00029664,0.00435696,-0.00168492,-0.00464931,0.
 00022194,0.00230709,0.00065865,-0.00261203,-0.00722234,-0.00301909,-0.
 00023233,-0.00029344,0.00013619,-0.36358115,-0.11348377,-0.26990298,-0
 .00900689,0.00728482,-0.03413389,0.37169360,0.00019998,0.00042402,-0.0
 0026246,-0.00007186,0.00012438,0.00003849,-0.00000379,-0.00000721,-0.0
 0000916,-0.00107913,-0.00095789,0.00010983,0.00000269,0.00000359,-0.00
 000113,-0.00000415,0.00000359,0.00000335,-0.00000258,0.00000097,-0.000
 00468,0.00004288,-0.00000462,-0.00000724,0.00000848,-0.00001354,-0.000
 02293,-0.00000605,0.00000266,0.00000581,-0.00395082,-0.00458839,0.0046
 1274,0.00095895,-0.00016603,0.00024783,-0.00052008,0.00130338,0.000402
 15,0.00020643,-0.00072206,-0.00034372,0.00002116,0.00003929,-0.0000240
 8,-0.00008063,0.00021134,-0.00005138,-0.00006197,-0.00012952,0.0000002
 4,0.00018307,0.00014779,0.00009278,0.00009100,-0.00006729,0.00004613,0
 .00084467,-0.00046687,-0.00123235,0.00005828,-0.00024377,-0.00047848,-
 0.00387952,-0.00023623,0.00181763,0.00477870,-0.00647153,0.00178249,0.
 00095642,0.01563651,0.00432994,0.00054440,0.00005851,0.00008775,-0.102
 71259,-0.06844416,-0.06146857,-0.00975361,0.00367793,-0.02956021,0.113
 22965,0.06088517,-0.00066707,-0.00028426,0.00045299,0.00038629,-0.0001
 3516,-0.00009326,-0.00007478,-0.00000140,0.00002068,0.00124063,0.00036
 275,0.00000943,-0.00001682,0.00001787,-0.00002100,0.00000835,-0.000011
 81,-0.00000225,0.00000987,0.00000268,0.00000902,-0.00008082,0.00001686
 ,-0.00000515,-0.00007193,0.00007992,0.00013846,0.00000438,-0.00002744,
 -0.00005275,0.00714971,0.00546651,-0.00385594,0.00000690,0.00053312,-0
 .00054710,0.00017910,-0.00056153,-0.00065467,0.00008309,0.00006613,0.0
 0063026,-0.00004676,0.00000495,0.00002944,-0.00000686,0.00073598,-0.00
 068637,-0.00043614,-0.00058000,0.00025265,0.00111338,0.00064401,0.0004
 0609,0.00034790,-0.00006773,0.00000457,0.00235973,-0.00149649,-0.00288
 928,-0.00008468,-0.00083622,-0.00088528,-0.01048762,0.00407074,0.00661
 315,0.00014892,0.00121287,0.00094481,0.00076705,-0.00629180,-0.0020551
 1,-0.00025754,-0.00040588,-0.00017056,-0.31614936,-0.08436501,-0.32565
 606,0.01315378,0.00196112,0.01702446,0.30142127,0.07988921,0.31103878\
 \-0.00000030,-0.00000010,-0.00000005,-0.00000007,-0.00000005,-0.000000
 10,0.00000007,0.,0.00000002,0.00000015,0.00000018,0.00000009,0.,0.,0.,
 0.00000001,0.,0.,0.,0.,0.,0.00000006,0.,0.00000005,0.00000002,0.000000
 03,0.00000004,0.,-0.00000001,-0.00000002,0.00000008,-0.00000016,0.0000
 0006,-0.00000009,0.00000006,-0.00000007,0.00000005,0.00000008,0.000000
 04,0.,0.,-0.00000004,0.,0.,0.,0.,-0.00000003,0.00000004,-0.00000010,0.
 00000014,0.,0.00000012,-0.00000019,0.,0.00000004,-0.00000003,-0.000000
 03,-0.00000003,0.00000015,-0.00000004,0.,0.,0.,0.,-0.00000009,0.000000
 05,-0.00000008,0.00000010,-0.00000016,0.00000007,-0.00000007,0.0000001
 4,0.,-0.00000001,0.,0.00000014,0.00000013,-0.00000011,-0.00000010,-0.0
 0000010,0.00000009,0.,0.,-0.00000001\\\@


 NATURE WILL TELL YOU A DIRECT LIE IF SHE CAN.

                                -- CHARLES DARWIN
 Job cpu time:  0 days  0 hours  0 minutes 48.5 seconds.
 File lengths (MBytes):  RWF=     38 Int=      0 D2E=      0 Chk=      3 Scr=      1
 Normal termination of Gaussian 09 at Tue Dec  3 19:02:33 2019.
