
                                 *****************
                                 * O   R   C   A *
                                 *****************

           --- An Ab Initio, DFT and Semiempirical electronic structure package ---

                  #######################################################
                  #                        -***-                        #
                  #  Department of molecular theory and spectroscopy    #
                  #              Directorship: Frank Neese              #
                  # Max Planck Institute for Chemical Energy Conversion #
                  #                  D-45470 Muelheim/Ruhr              #
                  #                       Germany                       #
                  #                                                     #
                  #                  All rights reserved                #
                  #                        -***-                        #
                  #######################################################


                         Program Version 4.0.1.2 - RELEASE -


 With contributions from (in alphabetic order):
   Daniel Aravena         : Magnetic Properties
   Michael Atanasov       : Ab Initio Ligand Field Theory
   Ute Becker             : Parallelization
   Martin Brehm           : Molecular dynamics
   Dmytro Bykov           : SCF Hessian
   Vijay G. Chilkuri      : MRCI spin determinant printing
   Dipayan Datta          : RHF DLPNO-CCSD density
   Achintya Kumar Dutta   : EOM-CC, STEOM-CC
   Dmitry Ganyushin       : Spin-Orbit,Spin-Spin,Magnetic field MRCI
   Yang Guo               : DLPNO-NEVPT2, CIM, IAO-localization
   Andreas Hansen         : Spin unrestricted coupled pair/coupled cluster methods
   Lee Huntington         : MR-EOM, pCC
   Robert Izsak           : Overlap fitted RIJCOSX, COSX-SCS-MP3, EOM
   Christian Kollmar      : KDIIS, OOCD, Brueckner-CCSD(T), CCSD density
   Simone Kossmann        : Meta GGA functionals, TD-DFT gradient, OOMP2, MP2 Hessian
   Martin Krupicka        : AUTO-CI
   Dagmar Lenk            : GEPOL surface
   Dimitrios Liakos       : Extrapolation schemes; parallel MDCI
   Dimitrios Manganas     : ROCIS; embedding schemes
   Dimitrios Pantazis     : SARC Basis sets
   Taras Petrenko         : DFT Hessian,TD-DFT gradient, ASA, ECA, R-Raman, ABS, FL, XAS/XES, NRVS
   Peter Pinski           : DLPNO-MP2
   Christoph Reimann      : Effective Core Potentials
   Marius Retegan         : Local ZFS, SOC
   Christoph Riplinger    : Optimizer, TS searches, QM/MM, DLPNO-CCSD(T), (RO)-DLPNO pert. Triples
   Tobias Risthaus        : Range-separated hybrids, TD-DFT gradient, RPA, STAB
   Michael Roemelt        : Restricted open shell CIS
   Masaaki Saitow         : Open-shell DLPNO
   Barbara Sandhoefer     : DKH picture change effects
   Kantharuban Sivalingam : CASSCF convergence, NEVPT2, FIC-MRCI
   Georgi Stoychev        : AutoAux
   Boris Wezisla          : Elementary symmetry handling
   Frank Wennmohs         : Technical directorship


 We gratefully acknowledge several colleagues who have allowed us to
 interface, adapt or use parts of their codes:
   Stefan Grimme, W. Hujo, H. Kruse,             : VdW corrections, initial TS optimization,
                  C. Bannwarth                     DFT functionals, gCP, sTDA/sTD-DF
   Ed Valeev                                     : LibInt (2-el integral package), F12 methods
   Garnet Chan, S. Sharma, J. Yang, R. Olivares  : DMRG
   Ulf Ekstrom                                   : XCFun DFT Library
   Mihaly Kallay                                 : mrcc  (arbitrary order and MRCC methods)
   Andreas Klamt, Michael Diedenhofen            : otool_cosmo (COSMO solvation model)
   Jiri Pittner, Ondrej Demel                    : Mk-CCSD
   Frank Weinhold                                : gennbo (NPA and NBO analysis)
   Christopher J. Cramer and Donald G. Truhlar   : smd solvation model


 Your calculation uses the libint2 library for the computation of 2-el integrals
 For citations please refer to: http://libint.valeyev.net

 This ORCA versions uses:
   CBLAS   interface :  Fast vector & matrix operations
   LAPACKE interface :  Fast linear algebra routines
   SCALAPACK package :  Parallel linear algebra routines


Your calculation utilizes the basis: STO-3G
   H-Ne       : W. J. Hehre, R. F. Stewart and J. A. Pople, J. Chem. Phys. 2657 (1969).
   Na-Ar      : W. J. Hehre, R. Ditchfield, R. F. Stewart and J. A. Pople, J. Chem. Phys. 2769 (1970).
   K,Ca,Ga-Kr : W. J. Pietro, B. A. Levy, W. J. Hehre and R. F. Stewart, J. Am. Chem. Soc. 19, 2225 (1980).
   Sc-Zn,Y-Cd : W. J. Pietro and W. J. Hehre, J. Comp. Chem. 4, 241 (1983).

================================================================================
                                        WARNINGS
                       Please study these warnings very carefully!
================================================================================

Warning: TCutStore was < 0. Adjusted to Thresh (uncritical)

WARNING: your system is open-shell and RHF/RKS was chosen
  ===> : WILL SWITCH to UHF/UKS


WARNING: Geometry Optimization
  ===> : Switching off AutoStart
         For restart on a previous wavefunction, please use MOREAD

INFO   : the flag for use of LIBINT has been found!

================================================================================
                                       INPUT FILE
================================================================================
NAME = TSB_2.inp
|  1> %pal nprocs 1 end
|  2> ! hf sto-3g TightSCF
|  3> ! Opt Freq
|  4> * xyz 0 2
|  5>   6     1.250065 -0.014859 -0.164022
|  6>   6     -0.133997 -0.513419 0.273975
|  7>   8     -1.116085 0.457907 -0.117679
|  8>   1     1.499482 1.090233 0.458968
|  9>   1     1.291333 0.230548 -1.220788
| 10>   1     2.046790 -0.697873 0.114810
| 11>   1     -0.334109 -1.487415 -0.194272
| 12>   1     -0.139573 -0.670536 1.360212
| 13>   1     -1.972191 0.072715 0.199679
| 14>   1     1.682130 1.880168 0.910510
| 15> *
| 16> 
| 17> 
| 18>                          ****END OF INPUT****
================================================================================

                       *****************************
                       * Geometry Optimization Run *
                       *****************************

Geometry optimization settings:
Update method            Update   .... BFGS
Choice of coordinates    CoordSys .... Redundant Internals
Initial Hessian          InHess   .... Almoef's Model

Convergence Tolerances:
Energy Change            TolE     ....  5.0000e-06 Eh
Max. Gradient            TolMAXG  ....  3.0000e-04 Eh/bohr
RMS Gradient             TolRMSG  ....  1.0000e-04 Eh/bohr
Max. Displacement        TolMAXD  ....  4.0000e-03 bohr
RMS Displacement         TolRMSD  ....  2.0000e-03 bohr

------------------------------------------------------------------------------
                        ORCA OPTIMIZATION COORDINATE SETUP
------------------------------------------------------------------------------

The optimization will be done in new redundant internal coordinates
Making redundant internal coordinates   ...  (new redundants) done
Evaluating the initial hessian          ...  (Almloef) done
Evaluating the coordinates              ...  done
Calculating the B-matrix                .... done
Calculating the G-matrix                .... done
Diagonalizing the G-matrix              .... done
The first mode is                       ....   12
The number of degrees of freedom        ....   24

    -----------------------------------------------------------------
                    Redundant Internal Coordinates


    -----------------------------------------------------------------
         Definition                    Initial Value    Approx d2E/dq
    -----------------------------------------------------------------
      1. B(C   1,C   0)                  1.5349         0.366861   
      2. B(O   2,C   1)                  1.4357         0.473034   
      3. B(H   3,C   0)                  1.2929         0.170896   
      4. B(H   4,C   0)                  1.0857         0.365872   
      5. B(H   5,C   0)                  1.0858         0.365659   
      6. B(H   6,C   1)                  1.0991         0.348291   
      7. B(H   7,C   1)                  1.0976         0.350243   
      8. B(H   8,O   2)                  0.9910         0.464054   
      9. B(H   9,H   3)                  0.9280         0.124992   
     10. A(C   1,C   0,H   5)          112.5839         0.324169   
     11. A(H   3,C   0,H   4)          105.5744         0.260122   
     12. A(H   3,C   0,H   5)          105.8053         0.260099   
     13. A(C   1,C   0,H   4)          112.6717         0.324200   
     14. A(H   4,C   0,H   5)          111.3614         0.292271   
     15. A(C   1,C   0,H   3)          108.3054         0.286975   
     16. A(C   0,C   1,O   2)          108.6150         0.374851   
     17. A(H   6,C   1,H   7)          107.0891         0.288067   
     18. A(O   2,C   1,H   7)          111.3059         0.333649   
     19. A(C   0,C   1,H   7)          109.4806         0.321887   
     20. A(O   2,C   1,H   6)          111.0252         0.333340   
     21. A(C   0,C   1,H   6)          109.2960         0.321593   
     22. A(C   1,O   2,H   8)          103.9224         0.346698   
     23. L(C   0,H   3,H   9,C   1, 2) 179.3688         0.196302   
     24. L(C   0,H   3,H   9,C   1, 1) 180.0602         0.196302   
     25. D(H   6,C   1,C   0,H   5)    -59.5724         0.010770   
     26. D(O   2,C   1,C   0,H   4)    -53.8788         0.010770   
     27. D(H   6,C   1,C   0,H   3)   -176.2079         0.010770   
     28. D(O   2,C   1,C   0,H   3)     62.5238         0.010770   
     29. D(O   2,C   1,C   0,H   5)    179.1593         0.010770   
     30. D(H   7,C   1,C   0,H   3)    -59.2006         0.010770   
     31. D(H   7,C   1,C   0,H   4)   -175.6032         0.010770   
     32. D(H   7,C   1,C   0,H   5)     57.4349         0.010770   
     33. D(H   6,C   1,C   0,H   4)     67.3895         0.010770   
     34. D(H   8,O   2,C   1,H   7)    -59.0986         0.017642   
     35. D(H   8,O   2,C   1,H   6)     60.0986         0.017642   
     36. D(H   8,O   2,C   1,C   0)   -179.7008         0.017642   
    -----------------------------------------------------------------

Number of atoms                         .... 10
Number of degrees of freedom            .... 36

         *************************************************************
         *                GEOMETRY OPTIMIZATION CYCLE   1            *
         *************************************************************
---------------------------------
CARTESIAN COORDINATES (ANGSTROEM)
---------------------------------
  C      1.250065   -0.014859   -0.164022
  C     -0.133997   -0.513419    0.273975
  O     -1.116085    0.457907   -0.117679
  H      1.499482    1.090233    0.458968
  H      1.291333    0.230548   -1.220788
  H      2.046790   -0.697873    0.114810
  H     -0.334109   -1.487415   -0.194272
  H     -0.139573   -0.670536    1.360212
  H     -1.972191    0.072715    0.199679
  H      1.682130    1.880168    0.910510

----------------------------
CARTESIAN COORDINATES (A.U.)
----------------------------
  NO LB      ZA    FRAG     MASS         X           Y           Z
   0 C     6.0000    0    12.011    2.362280   -0.028079   -0.309957
   1 C     6.0000    0    12.011   -0.253218   -0.970221    0.517738
   2 O     8.0000    0    15.999   -2.109095    0.865319   -0.222381
   3 H     1.0000    0     1.008    2.833610    2.060242    0.867324
   4 H     1.0000    0     1.008    2.440266    0.435673   -2.306955
   5 H     1.0000    0     1.008    3.867873   -1.318789    0.216959
   6 H     1.0000    0     1.008   -0.631375   -2.810807   -0.367121
   7 H     1.0000    0     1.008   -0.263755   -1.267129    2.570428
   8 H     1.0000    0     1.008   -3.726901    0.137411    0.377339
   9 H     1.0000    0     1.008    3.178765    3.553003    1.720615

--------------------------------
INTERNAL COORDINATES (ANGSTROEM)
--------------------------------
 C      0   0   0     0.000000000000     0.00000000     0.00000000
 C      1   0   0     1.534936827838     0.00000000     0.00000000
 O      2   1   0     1.435745065719   108.61502260     0.00000000
 H      1   2   3     1.292885806424   108.30541590    62.52379782
 H      1   2   3     1.085671231188   112.67167498   306.12115872
 H      1   2   3     1.085829698454   112.58393082   179.15929347
 H      2   1   3     1.099076099990   109.29604910   121.26833248
 H      2   1   3     1.097555312335   109.48056280   238.27559651
 H      3   2   1     0.990962390943   103.92243623   180.29916669
 H      4   1   2     0.928034360298   179.59525934    98.79873391

---------------------------
INTERNAL COORDINATES (A.U.)
---------------------------
 C      0   0   0     0.000000000000     0.00000000     0.00000000
 C      1   0   0     2.900610237483     0.00000000     0.00000000
 O      2   1   0     2.713164972337   108.61502260     0.00000000
 H      1   2   3     2.443200096576   108.30541590    62.52379782
 H      1   2   3     2.051621298422   112.67167498   306.12115872
 H      1   2   3     2.051920758157   112.58393082   179.15929347
 H      2   1   3     2.076952829319   109.29604910   121.26833248
 H      2   1   3     2.074078957143   109.48056280   238.27559651
 H      3   2   1     1.872647527899   103.92243623   180.29916669
 H      4   1   2     1.753730783831   179.59525934    98.79873391

---------------------
BASIS SET INFORMATION
---------------------
There are 3 groups of distinct atoms

 Group   1 Type C   : 6s3p contracted to 2s1p pattern {33/3}
 Group   2 Type O   : 6s3p contracted to 2s1p pattern {33/3}
 Group   3 Type H   : 3s contracted to 1s pattern {3}

Atom   0C    basis set group =>   1
Atom   1C    basis set group =>   1
Atom   2O    basis set group =>   2
Atom   3H    basis set group =>   3
Atom   4H    basis set group =>   3
Atom   5H    basis set group =>   3
Atom   6H    basis set group =>   3
Atom   7H    basis set group =>   3
Atom   8H    basis set group =>   3
Atom   9H    basis set group =>   3
------------------------------------------------------------------------------
                           ORCA GTO INTEGRAL CALCULATION
------------------------------------------------------------------------------

                         BASIS SET STATISTICS AND STARTUP INFO

 # of primitive gaussian shells          ...   48
 # of primitive gaussian functions       ...   66
 # of contracted shells                  ...   16
 # of contracted basis functions         ...   22
 Highest angular momentum                ...    1
 Maximum contraction depth               ...    3
 Integral package used                   ... LIBINT
 Integral threshhold            Thresh   ...  2.500e-11
 Primitive cut-off              TCut     ...  2.500e-12


------------------------------ INTEGRAL EVALUATION ----------------------------


 * One electron integrals 
 Pre-screening matrix                    ... done
 Shell pair data                         ... done (   0.000 sec)

-------------------------------------------------------------------------------
                                 ORCA SCF
-------------------------------------------------------------------------------

------------
SCF SETTINGS
------------
Hamiltonian:
 Ab initio Hamiltonian  Method          .... Hartree-Fock(GTOs)


General Settings:
 Integral files         IntName         .... TSB_2
 Hartree-Fock type      HFTyp           .... UHF
 Total Charge           Charge          ....    0
 Multiplicity           Mult            ....    2
 Number of Electrons    NEL             ....   27
 Basis Dimension        Dim             ....   22
 Nuclear Repulsion      ENuc            ....     85.5699036370 Eh

Convergence Acceleration:
 DIIS                   CNVDIIS         .... on
   Start iteration      DIISMaxIt       ....    12
   Startup error        DIISStart       ....  0.200000
   # of expansion vecs  DIISMaxEq       ....     5
   Bias factor          DIISBfac        ....   1.050
   Max. coefficient     DIISMaxC        ....  10.000
 Newton-Raphson         CNVNR           .... off
 SOSCF                  CNVSOSCF        .... off
 Level Shifting         CNVShift        .... on
   Level shift para.    LevelShift      ....    0.2500
   Turn off err/grad.   ShiftErr        ....    0.0010
 Zerner damping         CNVZerner       .... off
 Static damping         CNVDamp         .... on
   Fraction old density DampFac         ....    0.7000
   Max. Damping (<1)    DampMax         ....    0.9800
   Min. Damping (>=0)   DampMin         ....    0.0000
   Turn off err/grad.   DampErr         ....    0.1000
 Fernandez-Rico         CNVRico         .... off

SCF Procedure:
 Maximum # iterations   MaxIter         ....   125
 SCF integral mode      SCFMode         .... Direct
   Integral package                     .... LIBINT
 Reset frequeny         DirectResetFreq ....    20
 Integral Threshold     Thresh          ....  2.500e-11 Eh
 Primitive CutOff       TCut            ....  2.500e-12 Eh

Convergence Tolerance:
 Convergence Check Mode ConvCheckMode   .... Total+1el-Energy
 Convergence forced     ConvForced      .... 0
 Energy Change          TolE            ....  1.000e-08 Eh
 1-El. energy change                    ....  1.000e-05 Eh
 DIIS Error             TolErr          ....  5.000e-07


Diagonalization of the overlap matrix:
Smallest eigenvalue                        ... 2.171e-01
Time for diagonalization                   ...    0.000 sec
Threshold for overlap eigenvalues          ... 1.000e-08
Number of eigenvalues below threshold      ... 0
Time for construction of square roots      ...    0.000 sec
Total time needed                          ...    0.000 sec

-------------------
DFT GRID GENERATION
-------------------

General Integration Accuracy     IntAcc      ...  4.340
Radial Grid Type                 RadialGrid  ... Gauss-Chebyshev
Angular Grid (max. acc.)         AngularGrid ... Lebedev-110
Angular grid pruning method      GridPruning ... 3 (G Style)
Weight generation scheme         WeightScheme... Becke
Basis function cutoff            BFCut       ...    1.0000e-11
Integration weight cutoff        WCut        ...    1.0000e-14
Grids for H and He will be reduced by one unit

# of grid points (after initial pruning)     ...  10586 (   0.0 sec)
# of grid points (after weights+screening)   ...  10117 (   0.0 sec)
nearest neighbour list constructed           ...    0.0 sec
Grid point re-assignment to atoms done       ...    0.0 sec
Grid point division into batches done        ...    0.0 sec
Reduced shell lists constructed in    0.1 sec

Total number of grid points                  ...    10117
Total number of batches                      ...      165
Average number of points per batch           ...       61
Average number of grid points per atom       ...     1012
Average number of shells per batch           ...    13.64 (85.24%)
Average number of basis functions per batch  ...    19.40 (88.17%)
Average number of large shells per batch     ...    12.68 (92.98%)
Average number of large basis fcns per batch ...    18.15 (93.57%)
Maximum spatial batch extension              ...  19.58, 20.51, 26.43 au
Average spatial batch extension              ...   4.04,  4.05,  4.09 au

Time for grid setup =    0.061 sec

------------------------------
INITIAL GUESS: MODEL POTENTIAL
------------------------------
Loading Hartree-Fock densities                     ... done
Calculating cut-offs                               ... done
Setting up the integral package                    ... done
Initializing the effective Hamiltonian             ... done
Starting the Coulomb interaction                   ... done (   0.0 sec)
Reading the grid                                   ... done
Mapping shells                                     ... done
Starting the XC term evaluation                    ... done (   0.1 sec)
Transforming the Hamiltonian                       ... done (   0.0 sec)
Diagonalizing the Hamiltonian                      ... done (   0.0 sec)
Back transforming the eigenvectors                 ... done (   0.0 sec)
Now organizing SCF variables                       ... done
                      ------------------
                      INITIAL GUESS DONE (   0.2 sec)
                      ------------------
--------------
SCF ITERATIONS
--------------
ITER       Energy         Delta-E        Max-DP      RMS-DP      [F,P]     Damp
               ***  Starting incremental Fock matrix formation  ***
  0   -152.4646943388   0.000000000000 0.03258169  0.00405445  0.1751197 0.7000
  1   -152.4931987363  -0.028504397542 0.02855445  0.00344431  0.1309448 0.7000
                               ***Turning on DIIS***
  2   -152.5133789870  -0.020180250718 0.07059338  0.00821922  0.0926503 0.0000
  3   -152.5121823572   0.001196629826 0.02371723  0.00179447  0.0102114 0.0000
  4   -152.5580803097  -0.045897952535 0.01917995  0.00110450  0.0023077 0.0000
  5   -152.5606297387  -0.002549428919 0.01335636  0.00078843  0.0012008 0.0000
  6   -152.5632664365  -0.002636697861 0.00671145  0.00046217  0.0006577 0.0000
  7   -152.5634912074  -0.000224770879 0.00129399  0.00014411  0.0002275 0.0000
  8   -152.5635595574  -0.000068349972 0.00056247  0.00006510  0.0000645 0.0000
  9   -152.5636087480  -0.000049190665 0.00023802  0.00002970  0.0000101 0.0000
 10   -152.5636238825  -0.000015134511 0.00011444  0.00001478  0.0000075 0.0000
 11   -152.5636292335  -0.000005351001 0.00012899  0.00001653  0.0000079 0.0000
 12   -152.5636301368  -0.000000903216 0.00010003  0.00001265  0.0000043 0.0000
                            ***DIIS convergence achieved***

               *****************************************************
               *                     SUCCESS                       *
               *           SCF CONVERGED AFTER  13 CYCLES          *
               *****************************************************


----------------
TOTAL SCF ENERGY
----------------

Total Energy       :         -152.56362332 Eh           -4151.46725 eV

Components:
Nuclear Repulsion  :           85.56990364 Eh            2328.47546 eV
Electronic Energy  :         -238.13352695 Eh           -6479.94270 eV
One Electron Energy:         -378.11438613 Eh          -10289.01553 eV
Two Electron Energy:          139.98085918 Eh            3809.07283 eV

Virial components:
Potential Energy   :         -304.16332904 Eh           -8276.70496 eV
Kinetic Energy     :          151.59970573 Eh            4125.23772 eV
Virial Ratio       :            2.00635831


---------------
SCF CONVERGENCE
---------------

  Last Energy change         ...    6.8212e-06  Tolerance :   1.0000e-08
  Last MAX-Density change    ...    5.4266e-06  Tolerance :   1.0000e-07
  Last RMS-Density change    ...    6.6642e-07  Tolerance :   5.0000e-09
  Last DIIS Error            ...    4.3235e-07  Tolerance :   5.0000e-07

             **** THE GBW FILE WAS UPDATED (TSB_2.gbw) ****
             **** DENSITY FILE WAS UPDATED (TSB_2.scfp.tmp) ****
             **** ENERGY FILE WAS UPDATED (TSB_2.en.tmp) ****
----------------------
UHF SPIN CONTAMINATION
----------------------

Expectation value of <S**2>     :     0.787124
Ideal value S*(S+1) for S=0.5   :     0.750000
Deviation                       :     0.037124

----------------
ORBITAL ENERGIES
----------------
                 SPIN UP ORBITALS
  NO   OCC          E(Eh)            E(eV) 
   0   1.0000     -20.258820      -551.2705 
   1   1.0000     -11.092103      -301.8315 
   2   1.0000     -11.039678      -300.4049 
   3   1.0000      -1.279415       -34.8147 
   4   1.0000      -0.975708       -26.5504 
   5   1.0000      -0.802441       -21.8355 
   6   1.0000      -0.631891       -17.1946 
   7   1.0000      -0.618455       -16.8290 
   8   1.0000      -0.564873       -15.3710 
   9   1.0000      -0.513920       -13.9845 
  10   1.0000      -0.482167       -13.1204 
  11   1.0000      -0.417769       -11.3681 
  12   1.0000      -0.361810        -9.8454 
  13   1.0000      -0.301632        -8.2078 
  14   0.0000       0.556530        15.1439 
  15   0.0000       0.637478        17.3467 
  16   0.0000       0.657179        17.8828 
  17   0.0000       0.692216        18.8361 
  18   0.0000       0.705968        19.2104 
  19   0.0000       0.747686        20.3456 
  20   0.0000       0.778850        21.1936 
  21   0.0000       0.820727        22.3331 

                 SPIN DOWN ORBITALS
  NO   OCC          E(Eh)            E(eV) 
   0   1.0000     -20.258648      -551.2658 
   1   1.0000     -11.094025      -301.8838 
   2   1.0000     -11.018562      -299.8303 
   3   1.0000      -1.278614       -34.7929 
   4   1.0000      -0.941142       -25.6098 
   5   1.0000      -0.776223       -21.1221 
   6   1.0000      -0.614998       -16.7350 
   7   1.0000      -0.593472       -16.1492 
   8   1.0000      -0.511763       -13.9258 
   9   1.0000      -0.484050       -13.1717 
  10   1.0000      -0.473405       -12.8820 
  11   1.0000      -0.410523       -11.1709 
  12   1.0000      -0.356558        -9.7024 
  13   0.0000       0.246021         6.6946 
  14   0.0000       0.558005        15.1841 
  15   0.0000       0.648608        17.6495 
  16   0.0000       0.669207        18.2101 
  17   0.0000       0.701246        19.0819 
  18   0.0000       0.721370        19.6295 
  19   0.0000       0.763715        20.7817 
  20   0.0000       0.796307        21.6686 
  21   0.0000       0.914727        24.8910 

                    ********************************
                    * MULLIKEN POPULATION ANALYSIS *
                    ********************************

--------------------------------------------
MULLIKEN ATOMIC CHARGES AND SPIN POPULATIONS
--------------------------------------------
   0 C :   -0.134306    0.730344
   1 C :    0.004520   -0.069944
   2 O :   -0.285628    0.007963
   3 H :    0.038846   -0.252658
   4 H :    0.065586   -0.044010
   5 H :    0.059313   -0.044630
   6 H :    0.049108    0.023957
   7 H :    0.049861    0.008379
   8 H :    0.172126   -0.001682
   9 H :   -0.019425    0.642280
Sum of atomic charges         :   -0.0000000
Sum of atomic spin populations:    1.0000000

-----------------------------------------------------
MULLIKEN REDUCED ORBITAL CHARGES AND SPIN POPULATIONS
-----------------------------------------------------
CHARGE
  0 C s       :     3.206347  s :     3.206347
      pz      :     0.999536  p :     2.927959
      px      :     0.954376
      py      :     0.974047
  1 C s       :     3.168721  s :     3.168721
      pz      :     0.997622  p :     2.826759
      px      :     0.910139
      py      :     0.918998
  2 O s       :     3.836515  s :     3.836515
      pz      :     1.845229  p :     4.449114
      px      :     1.076044
      py      :     1.527841
  3 H s       :     0.961154  s :     0.961154
  4 H s       :     0.934414  s :     0.934414
  5 H s       :     0.940687  s :     0.940687
  6 H s       :     0.950892  s :     0.950892
  7 H s       :     0.950139  s :     0.950139
  8 H s       :     0.827874  s :     0.827874
  9 H s       :     1.019425  s :     1.019425

SPIN
  0 C s       :     0.123248  s :     0.123248
      pz      :     0.161160  p :     0.607096
      px      :     0.057529
      py      :     0.388407
  1 C s       :    -0.016094  s :    -0.016094
      pz      :    -0.010937  p :    -0.053850
      px      :    -0.026252
      py      :    -0.016661
  2 O s       :     0.000053  s :     0.000053
      pz      :     0.000507  p :     0.007910
      px      :     0.002719
      py      :     0.004684
  3 H s       :    -0.252658  s :    -0.252658
  4 H s       :    -0.044010  s :    -0.044010
  5 H s       :    -0.044630  s :    -0.044630
  6 H s       :     0.023957  s :     0.023957
  7 H s       :     0.008379  s :     0.008379
  8 H s       :    -0.001682  s :    -0.001682
  9 H s       :     0.642280  s :     0.642280


                     *******************************
                     * LOEWDIN POPULATION ANALYSIS *
                     *******************************

-------------------------------------------
LOEWDIN ATOMIC CHARGES AND SPIN POPULATIONS
-------------------------------------------
   0 C :   -0.071631    0.667667
   1 C :    0.050467   -0.054245
   2 O :   -0.205389    0.007047
   3 H :    0.047005   -0.178288
   4 H :    0.033371   -0.033045
   5 H :    0.029044   -0.033531
   6 H :    0.015156    0.020940
   7 H :    0.015490    0.007088
   8 H :    0.119678   -0.001492
   9 H :   -0.033191    0.597859

----------------------------------------------------
LOEWDIN REDUCED ORBITAL CHARGES AND SPIN POPULATIONS
----------------------------------------------------
CHARGE
  0 C s       :     3.054838  s :     3.054838
      pz      :     1.024694  p :     3.016793
      px      :     0.993268
      py      :     0.998831
  1 C s       :     3.028001  s :     3.028001
      pz      :     1.021549  p :     2.921532
      px      :     0.948830
      py      :     0.951153
  2 O s       :     3.712663  s :     3.712663
      pz      :     1.849207  p :     4.492726
      px      :     1.101805
      py      :     1.541715
  3 H s       :     0.952995  s :     0.952995
  4 H s       :     0.966629  s :     0.966629
  5 H s       :     0.970956  s :     0.970956
  6 H s       :     0.984844  s :     0.984844
  7 H s       :     0.984510  s :     0.984510
  8 H s       :     0.880322  s :     0.880322
  9 H s       :     1.033191  s :     1.033191

SPIN
  0 C s       :     0.096184  s :     0.096184
      pz      :     0.150112  p :     0.571483
      px      :     0.049129
      py      :     0.372243
  1 C s       :    -0.010342  s :    -0.010342
      pz      :    -0.008812  p :    -0.043902
      px      :    -0.021817
      py      :    -0.013274
  2 O s       :    -0.000256  s :    -0.000256
      pz      :     0.000430  p :     0.007302
      px      :     0.002465
      py      :     0.004408
  3 H s       :    -0.178288  s :    -0.178288
  4 H s       :    -0.033045  s :    -0.033045
  5 H s       :    -0.033531  s :    -0.033531
  6 H s       :     0.020940  s :     0.020940
  7 H s       :     0.007088  s :     0.007088
  8 H s       :    -0.001492  s :    -0.001492
  9 H s       :     0.597859  s :     0.597859


                      *****************************
                      * MAYER POPULATION ANALYSIS *
                      *****************************

  NA   - Mulliken gross atomic population
  ZA   - Total nuclear charge
  QA   - Mulliken gross atomic charge
  VA   - Mayer's total valence
  BVA  - Mayer's bonded valence
  FA   - Mayer's free valence

  ATOM       NA         ZA         QA         VA         BVA        FA
  0 C      6.1343     6.0000    -0.1343     3.9515     3.5991     0.3524
  1 C      5.9955     6.0000     0.0045     3.9343     3.9322     0.0021
  2 O      8.2856     8.0000    -0.2856     1.9904     1.9903     0.0001
  3 H      0.9612     1.0000     0.0388     0.9985     0.9347     0.0638
  4 H      0.9344     1.0000     0.0656     0.9957     0.9938     0.0019
  5 H      0.9407     1.0000     0.0593     0.9965     0.9945     0.0020
  6 H      0.9509     1.0000     0.0491     0.9976     0.9970     0.0006
  7 H      0.9501     1.0000     0.0499     0.9975     0.9974     0.0001
  8 H      0.8279     1.0000     0.1721     0.9704     0.9704     0.0000
  9 H      1.0194     1.0000    -0.0194     0.9996     0.5871     0.4125

  Mayer bond orders larger than 0.1
B(  0-C ,  1-C ) :   0.9976 B(  0-C ,  3-H ) :   0.4875 B(  0-C ,  4-H ) :   0.9771 
B(  0-C ,  5-H ) :   0.9777 B(  0-C ,  9-H ) :   0.1339 B(  1-C ,  2-O ) :   0.9872 
B(  1-C ,  6-H ) :   0.9606 B(  1-C ,  7-H ) :   0.9644 B(  2-O ,  8-H ) :   0.9498 
B(  3-H ,  9-H ) :   0.4407 

-------
TIMINGS
-------

Total SCF time: 0 days 0 hours 0 min 1 sec 

Total time                  ....       1.527 sec
Sum of individual times     ....       1.524 sec  ( 99.8%)

Fock matrix formation       ....       1.327 sec  ( 86.9%)
Diagonalization             ....       0.003 sec  (  0.2%)
Density matrix formation    ....       0.000 sec  (  0.0%)
Population analysis         ....       0.001 sec  (  0.0%)
Initial guess               ....       0.132 sec  (  8.6%)
Orbital Transformation      ....       0.000 sec  (  0.0%)
Orbital Orthonormalization  ....       0.000 sec  (  0.0%)
DIIS solution               ....       0.001 sec  (  0.1%)

-------------------------   --------------------
FINAL SINGLE POINT ENERGY      -152.563623315543
-------------------------   --------------------

------------------------------------------------------------------------------
                         ORCA SCF GRADIENT CALCULATION
------------------------------------------------------------------------------

Gradient of the Hartree-Fock SCF energy:
Hartree-Fock type                ... UHF
Number of operators              ...    2
Number of atoms                  ...   10
Basis set dimensions             ...   22
Integral neglect threshold       ... 2.5e-11
Integral primitive cutoff        ... 2.5e-12

Nuclear repulsion gradient       ... done
One Electron Gradient            ... done
Pre-screening matrix             ... done
Starting the two electron gradient:
Two electron gradient done

------------------
CARTESIAN GRADIENT
------------------

   1   C   :    0.000000518    0.000001205    0.000000528
   2   C   :    0.000000291   -0.000000602    0.000000234
   3   O   :   -0.000000823   -0.000000300    0.000000162
   4   H   :   -0.000000255   -0.000001027   -0.000000581
   5   H   :   -0.000000137   -0.000000307    0.000000002
   6   H   :   -0.000000259   -0.000000144   -0.000000108
   7   H   :   -0.000000064    0.000000173    0.000000038
   8   H   :   -0.000000014    0.000000110   -0.000000309
   9   H   :    0.000000630    0.000000359   -0.000000259
  10   H   :    0.000000114    0.000000533    0.000000292

Difference to translation invariance:
           :    0.0000000000    0.0000000000   -0.0000000000

Norm of the cartesian gradient     ...    0.0000024659
RMS gradient                       ...    0.0000004502
MAX gradient                       ...    0.0000012047

-------
TIMINGS
-------

Total SCF gradient time            ...        0.128 sec

One electron gradient       ....       0.004 sec  (  3.4%)
Prescreening matrices       ....       0.002 sec  (  1.6%)
Two electron gradient       ....       0.062 sec  ( 48.8%)
------------------------------------------------------------------------------
                         ORCA GEOMETRY RELAXATION STEP
------------------------------------------------------------------------------

Reading the OPT-File                    .... done
Getting information on internals        .... done
Copying old internal coords+grads       .... done
Making the new internal coordinates     .... (new redundants).... done
Validating the new internal coordinates .... (new redundants).... done
Calculating the B-matrix                .... done
Calculating the G,G- and P matrices     .... done
Transforming gradient to internals      .... done
Projecting the internal gradient        .... done
Number of atoms                         ....  10
Number of internal coordinates          ....  36
Current Energy                          ....  -152.563623316 Eh
Current gradient norm                   ....     0.000002466 Eh/bohr
Maximum allowed component of the step   ....  0.300
Current trust radius                    ....  0.300
Evaluating the initial hessian          ....  (Almloef) done
Projecting the Hessian                  .... done
Forming the augmented Hessian           .... done
Diagonalizing the augmented Hessian     .... done
Last element of RFO vector              ....  1.000000000
Lowest eigenvalues of augmented Hessian:
 -0.000000000  0.010770351  0.017641638  0.092585559  0.101598329
Length of the computed step             ....  0.000008002
The final length of the internal step   ....  0.000008002
Converting the step to cartesian space:
 Initial RMS(Int)=    0.0000013336
Transforming coordinates:
 Iter   0:  RMS(Cart)=    0.0000009693 RMS(Int)=    0.0000013336
 Iter   1:  RMS(Cart)=    0.0000000016 RMS(Int)=    0.0000000017
done
Storing new coordinates                 .... done

                                .--------------------.
          ----------------------|Geometry convergence|-------------------------
          Item                value                   Tolerance       Converged
          ---------------------------------------------------------------------
          RMS gradient        0.0000002298            0.0001000000      YES
          MAX gradient        0.0000007665            0.0003000000      YES
          RMS step            0.0000013336            0.0020000000      YES
          MAX step            0.0000049358            0.0040000000      YES
          ........................................................
          Max(Bonds)      0.0000      Max(Angles)    0.00
          Max(Dihed)        0.00      Max(Improp)    0.00
          ---------------------------------------------------------------------

                    ***********************HURRAY********************
                    ***        THE OPTIMIZATION HAS CONVERGED     ***
                    *************************************************


    ---------------------------------------------------------------------------
                         Redundant Internal Coordinates

                          --- Optimized Parameters ---  
                            (Angstroem and degrees)

        Definition                    OldVal   dE/dq     Step     FinalVal
    ----------------------------------------------------------------------------
     1. B(C   1,C   0)                1.5349  0.000000 -0.0000    1.5349   
     2. B(O   2,C   1)                1.4357  0.000000 -0.0000    1.4357   
     3. B(H   3,C   0)                1.2929 -0.000001  0.0000    1.2929   
     4. B(H   4,C   0)                1.0857 -0.000000  0.0000    1.0857   
     5. B(H   5,C   0)                1.0858 -0.000000  0.0000    1.0858   
     6. B(H   6,C   1)                1.0991 -0.000000  0.0000    1.0991   
     7. B(H   7,C   1)                1.0976 -0.000000  0.0000    1.0976   
     8. B(H   8,O   2)                0.9910 -0.000001  0.0000    0.9910   
     9. B(H   9,H   3)                0.9280  0.000001 -0.0000    0.9280   
    10. A(C   1,C   0,H   5)          112.58 -0.000000    0.00    112.58   
    11. A(H   3,C   0,H   4)          105.57  0.000000   -0.00    105.57   
    12. A(H   3,C   0,H   5)          105.81  0.000000   -0.00    105.81   
    13. A(C   1,C   0,H   4)          112.67 -0.000000    0.00    112.67   
    14. A(H   4,C   0,H   5)          111.36  0.000000    0.00    111.36   
    15. A(C   1,C   0,H   3)          108.31  0.000000   -0.00    108.31   
    16. A(C   0,C   1,O   2)          108.62 -0.000000    0.00    108.62   
    17. A(H   6,C   1,H   7)          107.09  0.000000   -0.00    107.09   
    18. A(O   2,C   1,H   7)          111.31  0.000000    0.00    111.31   
    19. A(C   0,C   1,H   7)          109.48 -0.000000   -0.00    109.48   
    20. A(O   2,C   1,H   6)          111.03 -0.000000    0.00    111.03   
    21. A(C   0,C   1,H   6)          109.30  0.000000   -0.00    109.30   
    22. A(C   1,O   2,H   8)          103.92  0.000000   -0.00    103.92   
    23. L(C   0,H   3,H   9,C   1, 2) 179.37 -0.000000    0.00    179.37   
    24. L(C   0,H   3,H   9,C   1, 1) 180.06 -0.000000    0.00    180.06   
    25. D(H   6,C   1,C   0,H   5)    -59.57  0.000000   -0.00    -59.57   
    26. D(O   2,C   1,C   0,H   4)    -53.88 -0.000000    0.00    -53.88   
    27. D(H   6,C   1,C   0,H   3)   -176.21 -0.000000   -0.00   -176.21   
    28. D(O   2,C   1,C   0,H   3)     62.52  0.000000   -0.00     62.52   
    29. D(O   2,C   1,C   0,H   5)    179.16  0.000000   -0.00    179.16   
    30. D(H   7,C   1,C   0,H   3)    -59.20  0.000000   -0.00    -59.20   
    31. D(H   7,C   1,C   0,H   4)   -175.60 -0.000000    0.00   -175.60   
    32. D(H   7,C   1,C   0,H   5)     57.43  0.000000   -0.00     57.43   
    33. D(H   6,C   1,C   0,H   4)     67.39 -0.000000    0.00     67.39   
    34. D(H   8,O   2,C   1,H   7)    -59.10  0.000000   -0.00    -59.10   
    35. D(H   8,O   2,C   1,H   6)     60.10 -0.000000   -0.00     60.10   
    36. D(H   8,O   2,C   1,C   0)   -179.70  0.000000   -0.00   -179.70   
    ----------------------------------------------------------------------------
                 *******************************************************
                 *** FINAL ENERGY EVALUATION AT THE STATIONARY POINT ***
                 ***               (AFTER    1 CYCLES)               ***
                 *******************************************************
---------------------------------
CARTESIAN COORDINATES (ANGSTROEM)
---------------------------------
  C      1.250065   -0.014860   -0.164022
  C     -0.133997   -0.513419    0.273975
  O     -1.116085    0.457908   -0.117679
  H      1.499482    1.090234    0.458968
  H      1.291334    0.230549   -1.220788
  H      2.046791   -0.697873    0.114810
  H     -0.334109   -1.487415   -0.194272
  H     -0.139573   -0.670536    1.360212
  H     -1.972191    0.072715    0.199679
  H      1.682129    1.880167    0.910509

----------------------------
CARTESIAN COORDINATES (A.U.)
----------------------------
  NO LB      ZA    FRAG     MASS         X           Y           Z
   0 C     6.0000    0    12.011    2.362280   -0.028081   -0.309958
   1 C     6.0000    0    12.011   -0.253218   -0.970221    0.517738
   2 O     8.0000    0    15.999   -2.109094    0.865320   -0.222380
   3 H     1.0000    0     1.008    2.833610    2.060243    0.867325
   4 H     1.0000    0     1.008    2.440267    0.435674   -2.306955
   5 H     1.0000    0     1.008    3.867874   -1.318788    0.216960
   6 H     1.0000    0     1.008   -0.631375   -2.810807   -0.367121
   7 H     1.0000    0     1.008   -0.263755   -1.267130    2.570429
   8 H     1.0000    0     1.008   -3.726902    0.137411    0.377339
   9 H     1.0000    0     1.008    3.178763    3.553000    1.720613

--------------------------------
INTERNAL COORDINATES (ANGSTROEM)
--------------------------------
 C      0   0   0     0.000000000000     0.00000000     0.00000000
 C      1   0   0     1.534936786660     0.00000000     0.00000000
 O      2   1   0     1.435744836824   108.61502945     0.00000000
 H      1   2   3     1.292887639001   108.30536249    62.52376799
 H      1   2   3     1.085671335159   112.67174013   306.12122061
 H      1   2   3     1.085829887392   112.58400349   179.15919662
 H      2   1   3     1.099076336930   109.29602767   121.26835403
 H      2   1   3     1.097555805030   109.48056224   238.27558648
 H      3   2   1     0.990963264995   103.92241380   180.29910573
 H      4   1   2     0.928031748408   179.59526024    98.79895905

---------------------------
INTERNAL COORDINATES (A.U.)
---------------------------
 C      0   0   0     0.000000000000     0.00000000     0.00000000
 C      1   0   0     2.900610159669     0.00000000     0.00000000
 O      2   1   0     2.713164539790   108.61502945     0.00000000
 H      1   2   3     2.443203559643   108.30536249    62.52376799
 H      1   2   3     2.051621494899   112.67174013   306.12122061
 H      1   2   3     2.051921115197   112.58400349   179.15919662
 H      2   1   3     2.076953277070   109.29602767   121.26835403
 H      2   1   3     2.074079888202   109.48056224   238.27558648
 H      3   2   1     1.872649179618   103.92241380   180.29910573
 H      4   1   2     1.753725848076   179.59526024    98.79895905

---------------------
BASIS SET INFORMATION
---------------------
There are 3 groups of distinct atoms

 Group   1 Type C   : 6s3p contracted to 2s1p pattern {33/3}
 Group   2 Type O   : 6s3p contracted to 2s1p pattern {33/3}
 Group   3 Type H   : 3s contracted to 1s pattern {3}

Atom   0C    basis set group =>   1
Atom   1C    basis set group =>   1
Atom   2O    basis set group =>   2
Atom   3H    basis set group =>   3
Atom   4H    basis set group =>   3
Atom   5H    basis set group =>   3
Atom   6H    basis set group =>   3
Atom   7H    basis set group =>   3
Atom   8H    basis set group =>   3
Atom   9H    basis set group =>   3
------------------------------------------------------------------------------
                           ORCA GTO INTEGRAL CALCULATION
------------------------------------------------------------------------------

                         BASIS SET STATISTICS AND STARTUP INFO

 # of primitive gaussian shells          ...   48
 # of primitive gaussian functions       ...   66
 # of contracted shells                  ...   16
 # of contracted basis functions         ...   22
 Highest angular momentum                ...    1
 Maximum contraction depth               ...    3
 Integral package used                   ... LIBINT
 Integral threshhold            Thresh   ...  2.500e-11
 Primitive cut-off              TCut     ...  2.500e-12


------------------------------ INTEGRAL EVALUATION ----------------------------


 * One electron integrals 
 Pre-screening matrix                    ... done
 Shell pair data                         ... done (   0.000 sec)

-------------------------------------------------------------------------------
                                 ORCA SCF
-------------------------------------------------------------------------------

------------
SCF SETTINGS
------------
Hamiltonian:
 Ab initio Hamiltonian  Method          .... Hartree-Fock(GTOs)


General Settings:
 Integral files         IntName         .... TSB_2
 Hartree-Fock type      HFTyp           .... UHF
 Total Charge           Charge          ....    0
 Multiplicity           Mult            ....    2
 Number of Electrons    NEL             ....   27
 Basis Dimension        Dim             ....   22
 Nuclear Repulsion      ENuc            ....     85.5698974615 Eh

Convergence Acceleration:
 DIIS                   CNVDIIS         .... on
   Start iteration      DIISMaxIt       ....    12
   Startup error        DIISStart       ....  0.200000
   # of expansion vecs  DIISMaxEq       ....     5
   Bias factor          DIISBfac        ....   1.050
   Max. coefficient     DIISMaxC        ....  10.000
 Newton-Raphson         CNVNR           .... off
 SOSCF                  CNVSOSCF        .... off
 Level Shifting         CNVShift        .... on
   Level shift para.    LevelShift      ....    0.2500
   Turn off err/grad.   ShiftErr        ....    0.0010
 Zerner damping         CNVZerner       .... off
 Static damping         CNVDamp         .... on
   Fraction old density DampFac         ....    0.7000
   Max. Damping (<1)    DampMax         ....    0.9800
   Min. Damping (>=0)   DampMin         ....    0.0000
   Turn off err/grad.   DampErr         ....    0.1000
 Fernandez-Rico         CNVRico         .... off

SCF Procedure:
 Maximum # iterations   MaxIter         ....   125
 SCF integral mode      SCFMode         .... Direct
   Integral package                     .... LIBINT
 Reset frequeny         DirectResetFreq ....    20
 Integral Threshold     Thresh          ....  2.500e-11 Eh
 Primitive CutOff       TCut            ....  2.500e-12 Eh

Convergence Tolerance:
 Convergence Check Mode ConvCheckMode   .... Total+1el-Energy
 Convergence forced     ConvForced      .... 0
 Energy Change          TolE            ....  1.000e-08 Eh
 1-El. energy change                    ....  1.000e-05 Eh
 DIIS Error             TolErr          ....  5.000e-07


Diagonalization of the overlap matrix:
Smallest eigenvalue                        ... 2.171e-01
Time for diagonalization                   ...    0.000 sec
Threshold for overlap eigenvalues          ... 1.000e-08
Number of eigenvalues below threshold      ... 0
Time for construction of square roots      ...    0.000 sec
Total time needed                          ...    0.000 sec

---------------------
INITIAL GUESS: MOREAD
---------------------
Guess MOs are being read from file: TSB_2.gbw
Input Geometry matches current geometry (good)
Input basis set matches current basis set (good)
MOs were renormalized
MOs were reorthogonalized (Cholesky)
                      ------------------
                      INITIAL GUESS DONE (   0.0 sec)
                      ------------------
--------------
SCF ITERATIONS
--------------
ITER       Energy         Delta-E        Max-DP      RMS-DP      [F,P]     Damp
               ***  Starting incremental Fock matrix formation  ***
  0   -152.5636225803   0.000000000000 0.00000051  0.00000006  0.0000007 0.7000
                 **** Energy Check signals convergence ****

               *****************************************************
               *                     SUCCESS                       *
               *           SCF CONVERGED AFTER   1 CYCLES          *
               *****************************************************


----------------
TOTAL SCF ENERGY
----------------

Total Energy       :         -152.56362258 Eh           -4151.46723 eV

Components:
Nuclear Repulsion  :           85.56989746 Eh            2328.47529 eV
Electronic Energy  :         -238.13352004 Eh           -6479.94251 eV
One Electron Energy:         -378.11437591 Eh          -10289.01525 eV
Two Electron Energy:          139.98085587 Eh            3809.07274 eV

Virial components:
Potential Energy   :         -304.16332715 Eh           -8276.70491 eV
Kinetic Energy     :          151.59970457 Eh            4125.23768 eV
Virial Ratio       :            2.00635831


---------------
SCF CONVERGENCE
---------------

  Last Energy change         ...   -2.3135e-11  Tolerance :   1.0000e-08
  Last MAX-Density change    ...    5.1718e-07  Tolerance :   1.0000e-07
  Last RMS-Density change    ...    6.1335e-08  Tolerance :   5.0000e-09
  Last DIIS Error            ...    6.3287e-07  Tolerance :   5.0000e-07

             **** THE GBW FILE WAS UPDATED (TSB_2.gbw) ****
             **** DENSITY FILE WAS UPDATED (TSB_2.scfp.tmp) ****
             **** ENERGY FILE WAS UPDATED (TSB_2.en.tmp) ****
----------------------
UHF SPIN CONTAMINATION
----------------------

Expectation value of <S**2>     :     0.787124
Ideal value S*(S+1) for S=0.5   :     0.750000
Deviation                       :     0.037124

----------------
ORBITAL ENERGIES
----------------
                 SPIN UP ORBITALS
  NO   OCC          E(Eh)            E(eV) 
   0   1.0000     -20.258821      -551.2705 
   1   1.0000     -11.092103      -301.8315 
   2   1.0000     -11.039678      -300.4049 
   3   1.0000      -1.279415       -34.8147 
   4   1.0000      -0.975708       -26.5504 
   5   1.0000      -0.802441       -21.8355 
   6   1.0000      -0.631891       -17.1946 
   7   1.0000      -0.618455       -16.8290 
   8   1.0000      -0.564873       -15.3710 
   9   1.0000      -0.513920       -13.9845 
  10   1.0000      -0.482167       -13.1204 
  11   1.0000      -0.417769       -11.3681 
  12   1.0000      -0.361810        -9.8454 
  13   1.0000      -0.301632        -8.2078 
  14   0.0000       0.556529        15.1439 
  15   0.0000       0.637477        17.3466 
  16   0.0000       0.657180        17.8828 
  17   0.0000       0.692215        18.8361 
  18   0.0000       0.705968        19.2104 
  19   0.0000       0.747686        20.3456 
  20   0.0000       0.778850        21.1936 
  21   0.0000       0.820728        22.3331 

                 SPIN DOWN ORBITALS
  NO   OCC          E(Eh)            E(eV) 
   0   1.0000     -20.258648      -551.2658 
   1   1.0000     -11.094025      -301.8838 
   2   1.0000     -11.018562      -299.8303 
   3   1.0000      -1.278613       -34.7928 
   4   1.0000      -0.941141       -25.6098 
   5   1.0000      -0.776223       -21.1221 
   6   1.0000      -0.614998       -16.7350 
   7   1.0000      -0.593472       -16.1492 
   8   1.0000      -0.511763       -13.9258 
   9   1.0000      -0.484050       -13.1717 
  10   1.0000      -0.473405       -12.8820 
  11   1.0000      -0.410523       -11.1709 
  12   1.0000      -0.356558        -9.7024 
  13   0.0000       0.246021         6.6946 
  14   0.0000       0.558005        15.1841 
  15   0.0000       0.648607        17.6495 
  16   0.0000       0.669207        18.2101 
  17   0.0000       0.701245        19.0819 
  18   0.0000       0.721370        19.6295 
  19   0.0000       0.763715        20.7817 
  20   0.0000       0.796307        21.6686 
  21   0.0000       0.914727        24.8910 

                    ********************************
                    * MULLIKEN POPULATION ANALYSIS *
                    ********************************

--------------------------------------------
MULLIKEN ATOMIC CHARGES AND SPIN POPULATIONS
--------------------------------------------
   0 C :   -0.134306    0.730341
   1 C :    0.004520   -0.069943
   2 O :   -0.285628    0.007965
   3 H :    0.038846   -0.252659
   4 H :    0.065586   -0.044008
   5 H :    0.059313   -0.044628
   6 H :    0.049107    0.023957
   7 H :    0.049861    0.008379
   8 H :    0.172126   -0.001683
   9 H :   -0.019425    0.642280
Sum of atomic charges         :   -0.0000000
Sum of atomic spin populations:    1.0000000

-----------------------------------------------------
MULLIKEN REDUCED ORBITAL CHARGES AND SPIN POPULATIONS
-----------------------------------------------------
CHARGE
  0 C s       :     3.206347  s :     3.206347
      pz      :     0.999536  p :     2.927959
      px      :     0.954376
      py      :     0.974047
  1 C s       :     3.168721  s :     3.168721
      pz      :     0.997622  p :     2.826759
      px      :     0.910139
      py      :     0.918998
  2 O s       :     3.836515  s :     3.836515
      pz      :     1.845229  p :     4.449113
      px      :     1.076044
      py      :     1.527841
  3 H s       :     0.961154  s :     0.961154
  4 H s       :     0.934414  s :     0.934414
  5 H s       :     0.940687  s :     0.940687
  6 H s       :     0.950893  s :     0.950893
  7 H s       :     0.950139  s :     0.950139
  8 H s       :     0.827874  s :     0.827874
  9 H s       :     1.019425  s :     1.019425

SPIN
  0 C s       :     0.123247  s :     0.123247
      pz      :     0.161158  p :     0.607094
      px      :     0.057528
      py      :     0.388408
  1 C s       :    -0.016094  s :    -0.016094
      pz      :    -0.010937  p :    -0.053849
      px      :    -0.026252
      py      :    -0.016661
  2 O s       :     0.000053  s :     0.000053
      pz      :     0.000508  p :     0.007912
      px      :     0.002720
      py      :     0.004685
  3 H s       :    -0.252659  s :    -0.252659
  4 H s       :    -0.044008  s :    -0.044008
  5 H s       :    -0.044628  s :    -0.044628
  6 H s       :     0.023957  s :     0.023957
  7 H s       :     0.008379  s :     0.008379
  8 H s       :    -0.001683  s :    -0.001683
  9 H s       :     0.642280  s :     0.642280


                     *******************************
                     * LOEWDIN POPULATION ANALYSIS *
                     *******************************

-------------------------------------------
LOEWDIN ATOMIC CHARGES AND SPIN POPULATIONS
-------------------------------------------
   0 C :   -0.071631    0.667665
   1 C :    0.050467   -0.054245
   2 O :   -0.205389    0.007049
   3 H :    0.047005   -0.178289
   4 H :    0.033371   -0.033044
   5 H :    0.029044   -0.033530
   6 H :    0.015156    0.020940
   7 H :    0.015490    0.007087
   8 H :    0.119678   -0.001493
   9 H :   -0.033191    0.597858

----------------------------------------------------
LOEWDIN REDUCED ORBITAL CHARGES AND SPIN POPULATIONS
----------------------------------------------------
CHARGE
  0 C s       :     3.054838  s :     3.054838
      pz      :     1.024694  p :     3.016793
      px      :     0.993268
      py      :     0.998831
  1 C s       :     3.028001  s :     3.028001
      pz      :     1.021548  p :     2.921531
      px      :     0.948830
      py      :     0.951153
  2 O s       :     3.712663  s :     3.712663
      pz      :     1.849207  p :     4.492726
      px      :     1.101805
      py      :     1.541714
  3 H s       :     0.952995  s :     0.952995
  4 H s       :     0.966629  s :     0.966629
  5 H s       :     0.970956  s :     0.970956
  6 H s       :     0.984844  s :     0.984844
  7 H s       :     0.984510  s :     0.984510
  8 H s       :     0.880322  s :     0.880322
  9 H s       :     1.033191  s :     1.033191

SPIN
  0 C s       :     0.096184  s :     0.096184
      pz      :     0.150111  p :     0.571482
      px      :     0.049128
      py      :     0.372243
  1 C s       :    -0.010342  s :    -0.010342
      pz      :    -0.008812  p :    -0.043902
      px      :    -0.021817
      py      :    -0.013274
  2 O s       :    -0.000256  s :    -0.000256
      pz      :     0.000430  p :     0.007304
      px      :     0.002466
      py      :     0.004409
  3 H s       :    -0.178289  s :    -0.178289
  4 H s       :    -0.033044  s :    -0.033044
  5 H s       :    -0.033530  s :    -0.033530
  6 H s       :     0.020940  s :     0.020940
  7 H s       :     0.007087  s :     0.007087
  8 H s       :    -0.001493  s :    -0.001493
  9 H s       :     0.597858  s :     0.597858


                      *****************************
                      * MAYER POPULATION ANALYSIS *
                      *****************************

  NA   - Mulliken gross atomic population
  ZA   - Total nuclear charge
  QA   - Mulliken gross atomic charge
  VA   - Mayer's total valence
  BVA  - Mayer's bonded valence
  FA   - Mayer's free valence

  ATOM       NA         ZA         QA         VA         BVA        FA
  0 C      6.1343     6.0000    -0.1343     3.9515     3.5991     0.3524
  1 C      5.9955     6.0000     0.0045     3.9343     3.9322     0.0021
  2 O      8.2856     8.0000    -0.2856     1.9904     1.9903     0.0001
  3 H      0.9612     1.0000     0.0388     0.9985     0.9347     0.0638
  4 H      0.9344     1.0000     0.0656     0.9957     0.9938     0.0019
  5 H      0.9407     1.0000     0.0593     0.9965     0.9945     0.0020
  6 H      0.9509     1.0000     0.0491     0.9976     0.9970     0.0006
  7 H      0.9501     1.0000     0.0499     0.9975     0.9974     0.0001
  8 H      0.8279     1.0000     0.1721     0.9704     0.9704     0.0000
  9 H      1.0194     1.0000    -0.0194     0.9996     0.5871     0.4125

  Mayer bond orders larger than 0.1
B(  0-C ,  1-C ) :   0.9976 B(  0-C ,  3-H ) :   0.4875 B(  0-C ,  4-H ) :   0.9771 
B(  0-C ,  5-H ) :   0.9777 B(  0-C ,  9-H ) :   0.1339 B(  1-C ,  2-O ) :   0.9872 
B(  1-C ,  6-H ) :   0.9606 B(  1-C ,  7-H ) :   0.9644 B(  2-O ,  8-H ) :   0.9498 
B(  3-H ,  9-H ) :   0.4407 

-------
TIMINGS
-------

Total SCF time: 0 days 0 hours 0 min 0 sec 

Total time                  ....       0.187 sec
Sum of individual times     ....       0.186 sec  ( 99.1%)

Fock matrix formation       ....       0.184 sec  ( 98.5%)
Diagonalization             ....       0.000 sec  (  0.2%)
Density matrix formation    ....       0.000 sec  (  0.0%)
Population analysis         ....       0.001 sec  (  0.3%)
Initial guess               ....       0.000 sec  (  0.1%)
Orbital Transformation      ....       0.000 sec  (  0.0%)
Orbital Orthonormalization  ....       0.000 sec  (  0.0%)
DIIS solution               ....       0.000 sec  (  0.0%)

-------------------------   --------------------
FINAL SINGLE POINT ENERGY      -152.563622580355
-------------------------   --------------------

                                *** OPTIMIZATION RUN DONE ***

                            ***************************************
                            *     ORCA property calculations      *
                            ***************************************

                                    ---------------------
                                    Active property flags
                                    ---------------------
   (+) Dipole Moment


------------------------------------------------------------------------------
                       ORCA ELECTRIC PROPERTIES CALCULATION
------------------------------------------------------------------------------

Dipole Moment Calculation                       ... on
Quadrupole Moment Calculation                   ... off
Polarizability Calculation                      ... off
GBWName                                         ... TSB_2.gbw
Electron density file                           ... TSB_2.scfp.tmp
The origin for moment calculation is the CENTER OF MASS  = (-0.013836,  0.056282  0.043354)

-------------
DIPOLE MOMENT
-------------
                                X             Y             Z
Electronic contribution:     -3.97580      -0.80490      -1.15916
Nuclear contribution   :      3.85369       0.20275       1.37565
                        -----------------------------------------
Total Dipole Moment    :     -0.12211      -0.60215       0.21649
                        -----------------------------------------
Magnitude (a.u.)       :      0.65143
Magnitude (Debye)      :      1.65581


-------------------------------------------------------------------------------
                               ORCA SCF HESSIAN
-------------------------------------------------------------------------------

Hessian of the Hartree-Fock SCF energy:
Hartree-Fock type                                ... UHF
Number of operators                              ...    2
Number of atoms                                  ...   10
Basis set dimensions                             ...   22
Integral neglect threshold                       ... 2.5e-11
Integral primitive cutoff                        ... 2.5e-12

Nuclear repulsion Hessian                        ... done   (      0.0 sec)

----------------------------------------------
Forming right-hand sides of CP-SCF equations     ...
----------------------------------------------
One electron integral derivatives                ... done   (      0.1 sec)
Transforming the overlap derivative matrices     ... done   (      0.0 sec)
Making the Q(x) pseudodensities                  ... done   (      0.0 sec)
Adding the E*S(x)*S(y) terms to the Hessian      ... done   (      0.0 sec)
Calculating energy weighted overlap derivatives  ... done   (      0.0 sec)
Two electron integral derivatives                ... done   (      0.1 sec)
tr(F(y)Q(x)) contribution to the Hessian         ... done   (      0.0 sec)
Response fock operator R(S(x))                   ... done   (      0.1 sec)
tr(F(y)S(x)) contribution to the Hessian         ... done   (      0.0 sec)
Transforming and finalizing RHSs                 ... done   (      0.0 sec)

----------------------------------------------
Solving the CP-SCF equations                     ...
----------------------------------------------
     CP-SCF ITERATION   0: 
     CP-SCF ITERATION   1:      0.000478760862
     CP-SCF ITERATION   2:      0.000049935776
     CP-SCF ITERATION   3:      0.000006233733
     CP-SCF ITERATION   4:      0.000000885859
     CP-SCF ITERATION   5:      0.000000121598
     CP-SCF ITERATION   6:      0.000000020908
     CP-SCF ITERATION   7:      0.000000009212

                                                 ... done   (      0.9 sec)
Forming perturbed density Hessian contributions  ... done   (      0.0 sec)
Making the perturbed densities                   ... done   (      0.0 sec)
2nd integral derivative contribs                 ... done   (      0.4 sec)
Dipol derivatives                                ... done   (      0.1 sec)

Total SCF Hessian time: 0 days 0 hours 0 min 1 sec 

Writing the Hessian file to the disk             ... done


-----------------------
VIBRATIONAL FREQUENCIES
-----------------------

   0:         0.00 cm**-1
   1:         0.00 cm**-1
   2:         0.00 cm**-1
   3:         0.00 cm**-1
   4:         0.00 cm**-1
   5:         0.00 cm**-1
   6:     -2766.57 cm**-1 ***imaginary mode***
   7:       145.62 cm**-1
   8:       335.14 cm**-1
   9:       370.23 cm**-1
  10:       484.39 cm**-1
  11:       720.72 cm**-1
  12:      1026.24 cm**-1
  13:      1081.07 cm**-1
  14:      1235.01 cm**-1
  15:      1320.16 cm**-1
  16:      1348.68 cm**-1
  17:      1462.65 cm**-1
  18:      1562.05 cm**-1
  19:      1570.62 cm**-1
  20:      1598.68 cm**-1
  21:      1739.39 cm**-1
  22:      1782.06 cm**-1
  23:      1796.90 cm**-1
  24:      1838.30 cm**-1
  25:      3527.98 cm**-1
  26:      3621.01 cm**-1
  27:      3639.18 cm**-1
  28:      3765.53 cm**-1
  29:      4228.17 cm**-1


------------
NORMAL MODES
------------

These modes are the cartesian displacements weighted by the diagonal matrix
M(i,i)=1/sqrt(m[i]) where m[i] is the mass of the displaced atom
Thus, these vectors are normalized but *not* orthogonal

                  0          1          2          3          4          5    
      0       0.000000   0.000000   0.000000   0.000000   0.000000   0.000000
      1       0.000000   0.000000   0.000000   0.000000   0.000000   0.000000
      2       0.000000   0.000000   0.000000   0.000000   0.000000   0.000000
      3       0.000000   0.000000   0.000000   0.000000   0.000000   0.000000
      4       0.000000   0.000000   0.000000   0.000000   0.000000   0.000000
      5       0.000000   0.000000   0.000000   0.000000   0.000000   0.000000
      6       0.000000   0.000000   0.000000   0.000000   0.000000   0.000000
      7       0.000000   0.000000   0.000000   0.000000   0.000000   0.000000
      8       0.000000   0.000000   0.000000   0.000000   0.000000   0.000000
      9       0.000000   0.000000   0.000000   0.000000   0.000000   0.000000
     10       0.000000   0.000000   0.000000   0.000000   0.000000   0.000000
     11       0.000000   0.000000   0.000000   0.000000   0.000000   0.000000
     12       0.000000   0.000000   0.000000   0.000000   0.000000   0.000000
     13       0.000000   0.000000   0.000000   0.000000   0.000000   0.000000
     14       0.000000   0.000000   0.000000   0.000000   0.000000   0.000000
     15       0.000000   0.000000   0.000000   0.000000   0.000000   0.000000
     16       0.000000   0.000000   0.000000   0.000000   0.000000   0.000000
     17       0.000000   0.000000   0.000000   0.000000   0.000000   0.000000
     18       0.000000   0.000000   0.000000   0.000000   0.000000   0.000000
     19       0.000000   0.000000   0.000000   0.000000   0.000000   0.000000
     20       0.000000   0.000000   0.000000   0.000000   0.000000   0.000000
     21       0.000000   0.000000   0.000000   0.000000   0.000000   0.000000
     22       0.000000   0.000000   0.000000   0.000000   0.000000   0.000000
     23       0.000000   0.000000   0.000000   0.000000   0.000000   0.000000
     24       0.000000   0.000000   0.000000   0.000000   0.000000   0.000000
     25       0.000000   0.000000   0.000000   0.000000   0.000000   0.000000
     26       0.000000   0.000000   0.000000   0.000000   0.000000   0.000000
     27       0.000000   0.000000   0.000000   0.000000   0.000000   0.000000
     28       0.000000   0.000000   0.000000   0.000000   0.000000   0.000000
     29       0.000000   0.000000   0.000000   0.000000   0.000000   0.000000
                  6          7          8          9         10         11    
      0      -0.013908   0.012215  -0.024760   0.055273  -0.133549  -0.075345
      1      -0.054356  -0.030775  -0.006340   0.014011   0.085063   0.058448
      2      -0.029573   0.032414  -0.026812   0.063490   0.065284  -0.056527
      3       0.000182  -0.012489   0.003480  -0.004303  -0.048700  -0.008055
      4       0.004271  -0.054955  -0.027670   0.021703  -0.132964  -0.030799
      5       0.002696  -0.076668   0.015863  -0.079456   0.037005   0.002084
      6      -0.000314   0.034514   0.057618  -0.096281   0.135152   0.041535
      7      -0.000047   0.055044  -0.003683  -0.038837  -0.003820  -0.006639
      8      -0.000369   0.076153  -0.052056  -0.017382  -0.035706   0.006188
      9       0.181136  -0.239898  -0.201654   0.181789   0.023082  -0.149390
     10       0.791138   0.164908  -0.027875   0.042071   0.103581   0.137916
     11       0.448947  -0.207282   0.067145  -0.023007  -0.010370  -0.166179
     12       0.014049   0.175625  -0.076984   0.224556  -0.377306   0.112631
     13       0.070487  -0.284880   0.061191  -0.074427   0.248154  -0.432390
     14       0.006748  -0.019949  -0.012680   0.049196   0.093000  -0.162856
     15       0.034463   0.037400   0.030771  -0.030624   0.015471  -0.003253
     16       0.040698   0.125856   0.041118  -0.030322   0.145116   0.349671
     17       0.040865   0.343330  -0.072715   0.205860  -0.219531   0.445054
     18       0.006337  -0.043706  -0.039193   0.061651   0.003313  -0.012900
     19      -0.001542   0.030635  -0.055685   0.046710  -0.068644  -0.050213
     20      -0.001340  -0.241023   0.089275  -0.167400  -0.124565   0.044180
     21       0.001085  -0.036225   0.024940  -0.039689  -0.165766   0.057660
     22      -0.000761  -0.231266   0.058059  -0.079345  -0.264117   0.017906
     23       0.001967  -0.102581   0.026197  -0.096789   0.016609   0.009362
     24       0.000219   0.008171   0.114700   0.044945   0.037151   0.005738
     25       0.000128   0.016473   0.429770   0.223949   0.247164   0.049341
     26       0.001011  -0.041547   0.626985   0.683164   0.001318  -0.025399
     27      -0.068755  -0.445904  -0.513525   0.478207   0.490537   0.324038
     28      -0.302608   0.326150  -0.042867   0.062219   0.220145  -0.296318
     29      -0.172082  -0.412342   0.232485  -0.184887  -0.408567   0.406349
                 12         13         14         15         16         17    
      0      -0.017349  -0.190672  -0.082672   0.009993  -0.051838  -0.005708
      1       0.006643   0.005114  -0.118759   0.028830   0.008201  -0.020549
      2      -0.010857   0.030667   0.076538   0.073458  -0.004567  -0.048556
      3      -0.033386   0.064292   0.136979   0.017524   0.137345  -0.019291
      4      -0.059811   0.135695   0.052602  -0.075457  -0.130337   0.013083
      5      -0.079530  -0.068067  -0.060474  -0.123313   0.074009   0.013817
      6       0.017078   0.095861  -0.036621  -0.012764  -0.109904   0.006672
      7       0.003835  -0.071145   0.046979   0.041679   0.115931   0.002496
      8       0.029368   0.023100  -0.017518   0.031132  -0.056149   0.029054
      9      -0.176407   0.056040  -0.476317   0.236014   0.017539  -0.117311
     10      -0.111528  -0.070562  -0.113200   0.204167  -0.062036  -0.148996
     11       0.187669   0.100708   0.018574  -0.095098   0.093161  -0.007091
     12       0.412339   0.064477  -0.398528  -0.371125   0.113311   0.188249
     13       0.388236  -0.073254   0.095109  -0.357472  -0.017849   0.202617
     14       0.097459   0.030571   0.128721  -0.035447  -0.000539   0.011819
     15      -0.032323  -0.659424   0.350025  -0.047416  -0.214728   0.028375
     16       0.055281  -0.473477   0.377788  -0.156062  -0.145484   0.086218
     17       0.144801   0.162400   0.006889  -0.193866   0.080082   0.097393
     18      -0.237584   0.246812   0.039447   0.258083   0.466234   0.697986
     19      -0.247309   0.119758   0.060506  -0.329911  -0.163080  -0.126122
     20       0.398115  -0.104219  -0.015195   0.297576   0.010179  -0.009460
     21       0.259593   0.213920   0.088892  -0.164334   0.594493  -0.528599
     22       0.398885   0.075135   0.125401   0.438964  -0.280366   0.112394
     23      -0.007950  -0.081249  -0.061363  -0.056771   0.053082   0.024995
     24      -0.016127   0.152650   0.169418   0.009371  -0.232213  -0.059901
     25       0.022609  -0.141471  -0.299576  -0.027202   0.277453   0.108734
     26      -0.040781   0.057437   0.138138   0.018535  -0.121356  -0.029314
     27       0.123985  -0.090081   0.161216  -0.045875  -0.019110  -0.016823
     28       0.066498   0.015264  -0.203375   0.121593   0.006633  -0.185496
     29      -0.168419  -0.086649  -0.129125   0.164994  -0.050866  -0.135555
                 18         19         20         21         22         23    
      0       0.011435   0.075855  -0.008848   0.065340  -0.042976   0.080390
      1      -0.049315   0.002575  -0.010672   0.031490   0.069827   0.102782
      2       0.062283  -0.005130   0.022717  -0.022273   0.066820   0.032973
      3      -0.081161  -0.019336   0.033896   0.082225   0.093820  -0.120992
      4       0.070926   0.023209  -0.035918  -0.011550  -0.006465  -0.017033
      5      -0.048247   0.002162   0.023048  -0.019237  -0.010432   0.008415
      6       0.017660   0.002055  -0.008209  -0.015635  -0.013966   0.017411
      7      -0.062124  -0.021619   0.031658  -0.021468  -0.026314   0.031965
      8       0.027786   0.010700  -0.015989   0.014002   0.014736  -0.020280
      9       0.091536  -0.767537  -0.132640  -0.008875  -0.034750  -0.112490
     10       0.127770   0.220400   0.368349  -0.074653  -0.093419  -0.155490
     11      -0.434814   0.164966  -0.648688  -0.051494  -0.043906  -0.016972
     12      -0.130220  -0.069304   0.217661  -0.502642   0.353041  -0.163558
     13       0.182518  -0.154715   0.346788   0.233913  -0.283237  -0.106628
     14       0.119098  -0.055584   0.115971   0.009515   0.004856  -0.023446
     15       0.187043  -0.122464  -0.171059  -0.266115   0.071292  -0.086842
     16       0.114005  -0.323648  -0.234993  -0.124648   0.006140  -0.097549
     17      -0.047726  -0.200076  -0.071208   0.513022  -0.430751   0.016209
     18       0.230282   0.074691  -0.092714  -0.280002  -0.273051   0.147231
     19       0.007347   0.015704  -0.020702   0.017133   0.093040  -0.101655
     20      -0.044597  -0.018954   0.041632   0.067091  -0.053573   0.064309
     21       0.498255   0.028364  -0.146006  -0.218183  -0.193309   0.298131
     22       0.030397  -0.002817  -0.054972   0.012946   0.127198  -0.101120
     23      -0.054221  -0.000265   0.023513  -0.017269   0.007044   0.002064
     24      -0.272708  -0.109636   0.132960  -0.187437  -0.197297   0.245949
     25       0.435135   0.168967  -0.210653   0.264646   0.278987  -0.350506
     26      -0.202046  -0.076640   0.095856  -0.117219  -0.124943   0.154400
     27      -0.053655   0.259805   0.023627  -0.046930  -0.110105  -0.120961
     28      -0.168645   0.112022  -0.141137  -0.226194  -0.466043  -0.616152
     29       0.056027   0.052084   0.151379  -0.131267  -0.264520  -0.367861
                 24         25         26         27         28         29    
      0      -0.013238   0.000451  -0.048936   0.007704  -0.040663   0.000267
      1      -0.001694  -0.002308   0.022650  -0.004817   0.050347   0.000152
      2       0.006845   0.000678   0.042148  -0.003762  -0.073782  -0.000062
      3       0.016648   0.013548   0.002007  -0.009386   0.000013   0.001691
      4       0.083683   0.064740  -0.001791  -0.038068  -0.000190  -0.004617
      5      -0.044893  -0.025999  -0.013538  -0.086208  -0.002146   0.002324
      6       0.002528  -0.001044   0.000160  -0.000162   0.000176  -0.056599
      7      -0.004724  -0.000104  -0.000181  -0.000095  -0.000009  -0.020927
      8       0.002161   0.000226   0.000044   0.000053   0.000017   0.018571
      9       0.002016  -0.003196   0.002528   0.002645   0.000301   0.000641
     10      -0.008943  -0.004257   0.000889   0.002820  -0.000541   0.000081
     11       0.014989  -0.000510  -0.000765   0.001376   0.000862   0.000081
     12       0.047474  -0.004249   0.022739  -0.007602  -0.026635   0.000988
     13      -0.049531  -0.006033   0.164793  -0.020721  -0.161629   0.000270
     14      -0.002296   0.013032  -0.670098   0.078464   0.695458  -0.001319
     15       0.042623  -0.019585   0.519981  -0.086261   0.507465  -0.001836
     16       0.035715   0.020126  -0.439175   0.074281  -0.435517   0.000887
     17      -0.072096  -0.009397   0.189719  -0.029949   0.178565  -0.000355
     18      -0.023652  -0.136827   0.012088   0.118250   0.001633   0.004285
     19      -0.250044  -0.675601   0.057294   0.558379   0.005379   0.005394
     20       0.647446  -0.334217   0.026974   0.268485   0.003700   0.002964
     21      -0.126492   0.001928   0.001702  -0.006653  -0.004303   0.003056
     22      -0.674072  -0.083043  -0.016762  -0.106578  -0.005419   0.000366
     23      -0.147661   0.632358   0.120264   0.749092   0.026136  -0.007688
     24      -0.020727   0.011398   0.001169   0.001785   0.003086   0.867940
     25       0.042890   0.004697   0.000964   0.002755  -0.000103   0.378236
     26      -0.020308  -0.004369  -0.000057   0.002972  -0.000253  -0.315387
     27      -0.002001   0.000300  -0.003554   0.000446   0.000027  -0.000060
     28       0.002017   0.001845  -0.013689   0.001570   0.000324   0.000119
     29      -0.001008   0.001232  -0.007637   0.000771  -0.000005   0.000001


-----------
IR SPECTRUM
-----------

 Mode    freq (cm**-1)   T**2         TX         TY         TZ
-------------------------------------------------------------------
   7:       145.62    2.055234  ( -0.012232  -0.899936  -1.115885)
   8:       335.14   47.089332  (  0.340743   3.589453   5.838583)
   9:       370.23   33.238520  (  1.441403   2.044133   5.194458)
  10:       484.39    5.015211  ( -1.929476   1.033333   0.473874)
  11:       720.72    0.262463  ( -0.499497  -0.038560   0.107139)
  12:      1026.24    0.476841  ( -0.477387   0.188356  -0.462022)
  13:      1081.07    0.121751  ( -0.273852  -0.172501   0.130379)
  14:      1235.01    6.314648  (  2.133322  -1.299530   0.273512)
  15:      1320.16    4.761165  (  0.806885  -0.949825  -1.791071)
  16:      1348.68    1.316514  ( -0.136043  -0.898968   0.699902)
  17:      1462.65    8.879242  ( -2.005157  -1.172373  -1.866582)
  18:      1562.05   29.307199  ( -4.863353   1.984382  -1.310429)
  19:      1570.62    5.378603  ( -1.859974   1.313865  -0.439155)
  20:      1598.68    2.831861  (  1.508057  -0.513996  -0.541695)
  21:      1739.39    8.565218  (  2.170625   1.846547  -0.666236)
  22:      1782.06    3.016068  (  1.460054   0.861663  -0.376628)
  23:      1796.90    4.470815  ( -1.331909  -1.589668   0.412055)
  24:      1838.30    2.623257  ( -1.120302   1.162665  -0.128033)
  25:      3527.98    8.466050  ( -0.435110   2.730690  -0.905572)
  26:      3621.01    1.823832  ( -1.015558  -0.708269  -0.539286)
  27:      3639.18   10.924123  ( -0.080784  -1.133566  -3.103647)
  28:      3765.53    0.712074  ( -0.431992   0.442901  -0.573843)
  29:      4228.17   25.792337  ( -3.992764  -2.574083   1.795625)

The first frequency considered to be a vibration is 7
The total number of vibrations considered is 23


--------------------------
THERMOCHEMISTRY AT 298.15K
--------------------------

Temperature         ... 298.15 K
Pressure            ... 1.00 atm
Total Mass          ... 47.08 AMU

Throughout the following assumptions are being made:
  (1) The electronic state is orbitally nondegenerate
      but the spin degeneracy is treated
  (2) There are no thermally accessible electronically excited states
  (3) Hindered rotations indicated by low frequency modes are not
      treated as such but are treated as vibrations and this may
      cause some error
  (4) All equations used are the standard statistical mechanics
      equations for an ideal gas
  (5) All vibrations are strictly harmonic

freq.     145.62  E(vib)   ...       0.41 
freq.     335.14  E(vib)   ...       0.24 
freq.     370.23  E(vib)   ...       0.21 
freq.     484.39  E(vib)   ...       0.15 
freq.     720.72  E(vib)   ...       0.07 
freq.    1026.24  E(vib)   ...       0.02 
freq.    1081.07  E(vib)   ...       0.02 
freq.    1235.01  E(vib)   ...       0.01 
freq.    1320.16  E(vib)   ...       0.01 
freq.    1348.68  E(vib)   ...       0.01 
freq.    1462.65  E(vib)   ...       0.00 
freq.    1562.05  E(vib)   ...       0.00 
freq.    1570.62  E(vib)   ...       0.00 
freq.    1598.68  E(vib)   ...       0.00 
freq.    1739.39  E(vib)   ...       0.00 
freq.    1782.06  E(vib)   ...       0.00 
freq.    1796.90  E(vib)   ...       0.00 
freq.    1838.30  E(vib)   ...       0.00 
freq.    3527.98  E(vib)   ...       0.00 
freq.    3621.01  E(vib)   ...       0.00 
freq.    3639.18  E(vib)   ...       0.00 
freq.    3765.53  E(vib)   ...       0.00 
freq.    4228.17  E(vib)   ...       0.00 

------------
INNER ENERGY
------------

The inner energy is: U= E(el) + E(ZPE) + E(vib) + E(rot) + E(trans)
    E(el)   - is the total energy from the electronic structure calculation
              = E(kin-el) + E(nuc-el) + E(el-el) + E(nuc-nuc)
    E(ZPE)  - the the zero temperature vibrational energy from the frequency calculation
    E(vib)  - the the finite temperature correction to E(ZPE) due to population
              of excited vibrational states
    E(rot)  - is the rotational thermal energy
    E(trans)- is the translational thermal energy

Summary of contributions to the inner energy U:
Electronic energy                ...   -152.56362258 Eh
Zero point energy                ...      0.09158184 Eh      57.47 kcal/mol
Thermal vibrational correction   ...      0.00182559 Eh       1.15 kcal/mol
Thermal rotational correction    ...      0.00141627 Eh       0.89 kcal/mol
Thermal translational correction ...      0.00141627 Eh       0.89 kcal/mol
-----------------------------------------------------------------------
Total thermal energy                   -152.46738261 Eh


Summary of corrections to the electronic energy:
(perhaps to be used in another calculation)
Total thermal correction                  0.00465814 Eh       2.92 kcal/mol
Non-thermal (ZPE) correction              0.09158184 Eh      57.47 kcal/mol
-----------------------------------------------------------------------
Total correction                          0.09623997 Eh      60.39 kcal/mol


--------
ENTHALPY
--------

The enthalpy is H = U + kB*T
                kB is Boltzmann's constant
Total free energy                 ...   -152.46738261 Eh 
Thermal Enthalpy correction       ...      0.00094421 Eh       0.59 kcal/mol
-----------------------------------------------------------------------
Total Enthalpy                    ...   -152.46643840 Eh


Vibrational entropy computed according to the QRRHO of S. Grimme
Chem.Eur.J. 2012 18 9955


-------
ENTROPY
-------

The entropy contributions are T*S = T*(S(el)+S(vib)+S(rot)+S(trans)
     S(el)   - electronic entropy
     S(vib)  - vibrational entropy
     S(rot)  - rotational entropy
     S(trans)- translational entropy
The entropies will be listed as mutliplied by the temperature to get
units of energy

Electronic entropy                ...      0.00065446 Eh      0.41 kcal/mol
Vibrational entropy               ...      0.00298082 Eh      1.87 kcal/mol
Rotational entropy                ...      0.00981919 Eh      6.16 kcal/mol
Translational entropy             ...      0.01780424 Eh     11.17 kcal/mol
-----------------------------------------------------------------------
Final entropy term                ...      0.03125872 Eh     19.62 kcal/mol


CAUTION: The rotational entropy is not quite correctly treated here
         because it includes a symmetry number that is not yet correctly
         implemented in ORCA!
For a nonlinear molecule the correct rotational entropy is:
    S(rot) = R*(ln(qrot/sn)+1.5)
    R    = 8.31441 J/mol/K = 1.987191683e-3 kcal/mol/K
    qrot = 21989.2159080
    sn is the rotational symmetry number. We have assumed 3 here
       if it is different for your molecule then you should correct
       the printed rotational entropy by manually evaluating the equation
       as given above

For convenience we print out the resulting values for sn=1 - 12:
 sn= 1  qrot/sn=   21989.2159 T*S(rot)=     6.81 kcal/mol T*S(tot)=    20.27 kcal/mol
 sn= 2  qrot/sn=   10994.6080 T*S(rot)=     6.40 kcal/mol T*S(tot)=    19.86 kcal/mol
 sn= 3  qrot/sn=    7329.7386 T*S(rot)=     6.16 kcal/mol T*S(tot)=    19.62 kcal/mol
 sn= 4  qrot/sn=    5497.3040 T*S(rot)=     5.99 kcal/mol T*S(tot)=    19.44 kcal/mol
 sn= 5  qrot/sn=    4397.8432 T*S(rot)=     5.86 kcal/mol T*S(tot)=    19.31 kcal/mol
 sn= 6  qrot/sn=    3664.8693 T*S(rot)=     5.75 kcal/mol T*S(tot)=    19.20 kcal/mol
 sn= 7  qrot/sn=    3141.3166 T*S(rot)=     5.66 kcal/mol T*S(tot)=    19.11 kcal/mol
 sn= 8  qrot/sn=    2748.6520 T*S(rot)=     5.58 kcal/mol T*S(tot)=    19.03 kcal/mol
 sn= 9  qrot/sn=    2443.2462 T*S(rot)=     5.51 kcal/mol T*S(tot)=    18.96 kcal/mol
 sn=10  qrot/sn=    2198.9216 T*S(rot)=     5.45 kcal/mol T*S(tot)=    18.90 kcal/mol
 sn=11  qrot/sn=    1999.0196 T*S(rot)=     5.39 kcal/mol T*S(tot)=    18.85 kcal/mol
 sn=12  qrot/sn=    1832.4347 T*S(rot)=     5.34 kcal/mol T*S(tot)=    18.79 kcal/mol


-------------------
GIBBS FREE ENTHALPY
-------------------

The Gibbs free enthalpy is G = H - T*S

Total enthalpy                    ...   -152.46643840 Eh 
Total entropy correction          ...     -0.03125872 Eh    -19.62 kcal/mol
-----------------------------------------------------------------------
Final Gibbs free enthalpy         ...   -152.49769712 Eh

For completeness - the Gibbs free enthalpy minus the electronic energy
G-E(el)                           ...      0.06592546 Eh     41.37 kcal/mol


Timings for individual modules:

Sum of individual times         ...        3.894 sec (=   0.065 min)
GTO integral calculation        ...        0.292 sec (=   0.005 min)   7.5 %
SCF iterations                  ...        1.739 sec (=   0.029 min)  44.7 %
SCF Gradient evaluation         ...        0.135 sec (=   0.002 min)   3.5 %
Geometry relaxation             ...        0.023 sec (=   0.000 min)   0.6 %
Analytical frequency calculation...        1.705 sec (=   0.028 min)  43.8 %
                             ****ORCA TERMINATED NORMALLY****
TOTAL RUN TIME: 0 days 0 hours 0 minutes 4 seconds 18 msec
