 Entering Gaussian System, Link 0=/home/programs/G09_64/g09/g09
 Initial command:
 /home/programs/G09_64/g09/l1.exe /scratch/Gau-6100.inp -scrdir=/scratch/
 Entering Link 1 = /home/programs/G09_64/g09/l1.exe PID=      6104.
  
 Copyright (c) 1988,1990,1992,1993,1995,1998,2003,2009,2010,
            Gaussian, Inc.  All Rights Reserved.
  
 This is part of the Gaussian(R) 09 program.  It is based on
 the Gaussian(R) 03 system (copyright 2003, Gaussian, Inc.),
 the Gaussian(R) 98 system (copyright 1998, Gaussian, Inc.),
 the Gaussian(R) 94 system (copyright 1995, Gaussian, Inc.),
 the Gaussian 92(TM) system (copyright 1992, Gaussian, Inc.),
 the Gaussian 90(TM) system (copyright 1990, Gaussian, Inc.),
 the Gaussian 88(TM) system (copyright 1988, Gaussian, Inc.),
 the Gaussian 86(TM) system (copyright 1986, Carnegie Mellon
 University), and the Gaussian 82(TM) system (copyright 1983,
 Carnegie Mellon University). Gaussian is a federally registered
 trademark of Gaussian, Inc.
  
 This software contains proprietary and confidential information,
 including trade secrets, belonging to Gaussian, Inc.
  
 This software is provided under written license and may be
 used, copied, transmitted, or stored only in accord with that
 written license.
  
 The following legend is applicable only to US Government
 contracts under FAR:
  
                    RESTRICTED RIGHTS LEGEND
  
 Use, reproduction and disclosure by the US Government is
 subject to restrictions as set forth in subparagraphs (a)
 and (c) of the Commercial Computer Software - Restricted
 Rights clause in FAR 52.227-19.
  
 Gaussian, Inc.
 340 Quinnipiac St., Bldg. 40, Wallingford CT 06492
  
  
 ---------------------------------------------------------------
 Warning -- This program may not be used in any manner that
 competes with the business of Gaussian, Inc. or will provide
 assistance to any competitor of Gaussian, Inc.  The licensee
 of this program is prohibited from giving any competitor of
 Gaussian, Inc. access to this program.  By using this program,
 the user acknowledges that Gaussian, Inc. is engaged in the
 business of creating and licensing software in the field of
 computational chemistry and represents and warrants to the
 licensee that it is not a competitor of Gaussian, Inc. and that
 it will not use this program in any manner prohibited above.
 ---------------------------------------------------------------
  

 Cite this work as:
 Gaussian 09, Revision B.01,
 M. J. Frisch, G. W. Trucks, H. B. Schlegel, G. E. Scuseria, 
 M. A. Robb, J. R. Cheeseman, G. Scalmani, V. Barone, B. Mennucci, 
 G. A. Petersson, H. Nakatsuji, M. Caricato, X. Li, H. P. Hratchian, 
 A. F. Izmaylov, J. Bloino, G. Zheng, J. L. Sonnenberg, M. Hada, 
 M. Ehara, K. Toyota, R. Fukuda, J. Hasegawa, M. Ishida, T. Nakajima, 
 Y. Honda, O. Kitao, H. Nakai, T. Vreven, J. A. Montgomery, Jr., 
 J. E. Peralta, F. Ogliaro, M. Bearpark, J. J. Heyd, E. Brothers, 
 K. N. Kudin, V. N. Staroverov, T. Keith, R. Kobayashi, J. Normand, 
 K. Raghavachari, A. Rendell, J. C. Burant, S. S. Iyengar, J. Tomasi, 
 M. Cossi, N. Rega, J. M. Millam, M. Klene, J. E. Knox, J. B. Cross, 
 V. Bakken, C. Adamo, J. Jaramillo, R. Gomperts, R. E. Stratmann, 
 O. Yazyev, A. J. Austin, R. Cammi, C. Pomelli, J. W. Ochterski, 
 R. L. Martin, K. Morokuma, V. G. Zakrzewski, G. A. Voth, 
 P. Salvador, J. J. Dannenberg, S. Dapprich, A. D. Daniels, 
 O. Farkas, J. B. Foresman, J. V. Ortiz, J. Cioslowski, 
 and D. J. Fox, Gaussian, Inc., Wallingford CT, 2010.
 
 ******************************************
 Gaussian 09:  AM64L-G09RevB.01 12-Aug-2010
                 4-Dec-2019 
 ******************************************
 %nproc=8
 Will use up to    8 processors via shared memory.
 %mem=6GB
 ---------------------------------------------------
 #p ONIOM(hf/3-21g:hf/sto-3g) opt=tight freq=noraman
 ---------------------------------------------------
 1/7=10,18=20,19=15,38=1,52=2/1,3;
 2/9=110,12=2,17=6,18=5,40=1/2;
 1/7=10,18=20,19=15,38=1,52=2,53=3172/20;
 3/6=3,11=9,16=1,25=1,30=1,71=1/1,2,3;
 4//1;
 5/5=2,38=5/2;
 6/7=2,8=2,9=2,10=2,28=1/1;
 7/7=1,33=-1/1,2,3,16;
 1/7=10,18=20,19=15,52=2,53=2032/20;
 3/5=5,11=9,16=1,25=1,30=1,71=1/1,2,3;
 4//1;
 5/5=2,38=5/2;
 6/7=2,8=2,9=2,10=2,28=1/1;
 7/7=1,33=-1/1,2,3,16;
 1/7=10,18=20,19=15,52=2,53=1022/20;
 3/6=3,11=9,16=1,25=1,30=1,71=1/1,2,3;
 4//1;
 5/5=2,38=5/2;
 6/7=2,8=2,9=2,10=2,28=1/1;
 7/7=1,33=-1/1,2,3,16;
 1/7=10,18=20,19=15,52=2,53=3015/20;
 7/9=1,44=-1/16;
 1/7=10,18=20,19=15,52=2/3(2);
 2/9=110/2;
 99//99;
 2/9=110/2;
 1/7=10,18=20,19=15,52=2,53=3173/20;
 3/6=3,11=9,16=1,25=1,30=1,71=1/1,2,3;
 4/5=5,16=3/1;
 5/5=2,38=5/2;
 7/7=1,33=-1/1,2,3,16;
 1/7=10,18=20,19=15,52=2,53=2033/20;
 3/5=5,11=9,16=1,25=1,30=1,71=1/1,2,3;
 4/5=5,16=3/1;
 5/5=2,38=5/2;
 7/7=1,33=-1/1,2,3,16;
 1/7=10,18=20,19=15,52=2,53=1023/20;
 3/6=3,11=9,16=1,25=1,30=1,71=1/1,2,3;
 4/5=5,16=3/1;
 5/5=2,38=5/2;
 7/7=1,33=-1/1,2,3,16;
 1/7=10,18=20,19=15,52=2,53=3015/20;
 7/9=1,44=-1/16;
 1/7=10,18=20,19=15,52=2/3(-18);
 2/9=110/2;
 99//99;
 Leave Link    1 at Wed Dec  4 09:57:49 2019, MaxMem=  805306368 cpu:       0.4
 (Enter /home/programs/G09_64/g09/l101.exe)
 ---------------------
 Ethanol, g2 conformer
 ---------------------
 Symbolic Z-matrix:
 Charge =  0 Multiplicity = 1 for low   level calculation on real  system.
 Charge =  0 Multiplicity = 1 for high  level calculation on model system.
 Charge =  0 Multiplicity = 1 for low   level calculation on model system.
 O                    -1.05134  -0.76993  -0.15018  H 
 C                    -2.4562   -1.00387  -0.26788  H 
 C                    -2.72063  -1.76103  -1.56863  H 
 H                    -0.41653  -1.55378  -0.17041  H 
 H                    -3.77977  -1.95537  -1.68723  H 
 H                    -2.19012  -2.70448  -1.56186  H 
 H                    -2.37559  -1.17706  -2.41227  H 
 H                    -3.0009   -0.06506  -0.27648  H 
 H                    -2.81902  -1.58657   0.57246  H 
 O                     0.26113   0.43643   1.75678  L 
 H                    -0.43879  -0.0136    1.22038  L 
 H                     0.27225   1.39062   1.36333  L 
 O                     0.25728   2.50912   0.55625  L 
 H                    -0.57196   3.02478   0.66152  L 
 H                     0.16743   2.05947  -0.37544  L 
 O                     0.08619   1.20817  -1.43785  L 
 H                     1.01689   0.85158  -1.53916  L 
 H                    -0.42132   0.42971  -1.08962  L 
 O                     2.42461   0.28113  -1.34106  L 
 H                     3.08742   1.00387  -1.26916  L 
 H                     2.42061  -0.11984  -0.41708  L 
 O                     0.67313  -2.45669  -0.06201  L 
 H                     1.36545  -1.85698   0.3826   L 
 H                     1.0669   -2.64936  -0.94164  L 
 O                     2.08511  -0.72871   0.90993  L 
 H                     1.28677  -0.15541   1.38944  L 
 H                     2.77403  -0.91211   1.58156  L 
 
 NAtoms=     27 NQM=     27 NQMF=      0 NMic=      0 NMicF=      0 NTot=     27.
                    Isotopes and Nuclear Properties:
 (Nuclear quadrupole moments (NQMom) in fm**2, nuclear magnetic moments (NMagM)
  in nuclear magnetons)

  Atom         1           2           3           4           5           6           7           8           9          10
 IAtWgt=          16          12          12           1           1           1           1           1           1          16
 AtmWgt=  15.9949146  12.0000000  12.0000000   1.0078250   1.0078250   1.0078250   1.0078250   1.0078250   1.0078250  15.9949146
 NucSpn=           0           0           0           1           1           1           1           1           1           0
 AtZEff=   0.0000000   0.0000000   0.0000000   0.0000000   0.0000000   0.0000000   0.0000000   0.0000000   0.0000000   0.0000000
 NQMom=    0.0000000   0.0000000   0.0000000   0.0000000   0.0000000   0.0000000   0.0000000   0.0000000   0.0000000   0.0000000
 NMagM=    0.0000000   0.0000000   0.0000000   2.7928460   2.7928460   2.7928460   2.7928460   2.7928460   2.7928460   0.0000000

  Atom        11          12          13          14          15          16          17          18          19          20
 IAtWgt=           1           1          16           1           1          16           1           1          16           1
 AtmWgt=   1.0078250   1.0078250  15.9949146   1.0078250   1.0078250  15.9949146   1.0078250   1.0078250  15.9949146   1.0078250
 NucSpn=           1           1           0           1           1           0           1           1           0           1
 AtZEff=   0.0000000   0.0000000   0.0000000   0.0000000   0.0000000   0.0000000   0.0000000   0.0000000   0.0000000   0.0000000
 NQMom=    0.0000000   0.0000000   0.0000000   0.0000000   0.0000000   0.0000000   0.0000000   0.0000000   0.0000000   0.0000000
 NMagM=    2.7928460   2.7928460   0.0000000   2.7928460   2.7928460   0.0000000   2.7928460   2.7928460   0.0000000   2.7928460

  Atom        21          22          23          24          25          26          27
 IAtWgt=           1          16           1           1          16           1           1
 AtmWgt=   1.0078250  15.9949146   1.0078250   1.0078250  15.9949146   1.0078250   1.0078250
 NucSpn=           1           0           1           1           0           1           1
 AtZEff=   0.0000000   0.0000000   0.0000000   0.0000000   0.0000000   0.0000000   0.0000000
 NQMom=    0.0000000   0.0000000   0.0000000   0.0000000   0.0000000   0.0000000   0.0000000
 NMagM=    2.7928460   0.0000000   2.7928460   2.7928460   0.0000000   2.7928460   2.7928460
 Leave Link  101 at Wed Dec  4 09:57:49 2019, MaxMem=  805306368 cpu:       0.9
 (Enter /home/programs/G09_64/g09/l103.exe)

 GradGradGradGradGradGradGradGradGradGradGradGradGradGradGradGradGradGrad
 Berny optimization.
 Initialization pass.
                           ----------------------------
                           !    Initial Parameters    !
                           ! (Angstroms and Degrees)  !
 --------------------------                            --------------------------
 ! Name  Definition              Value          Derivative Info.                !
 --------------------------------------------------------------------------------
 ! R1    R(1,2)                  1.4291         estimate D2E/DX2                !
 ! R2    R(1,4)                  1.0089         estimate D2E/DX2                !
 ! R3    R(1,11)                 1.681          estimate D2E/DX2                !
 ! R4    R(1,18)                 1.6488         estimate D2E/DX2                !
 ! R5    R(2,3)                  1.5281         estimate D2E/DX2                !
 ! R6    R(2,8)                  1.0854         estimate D2E/DX2                !
 ! R7    R(2,9)                  1.0851         estimate D2E/DX2                !
 ! R8    R(3,5)                  1.0833         estimate D2E/DX2                !
 ! R9    R(3,6)                  1.0824         estimate D2E/DX2                !
 ! R10   R(3,7)                  1.0825         estimate D2E/DX2                !
 ! R11   R(4,22)                 1.4193         estimate D2E/DX2                !
 ! R12   R(10,11)                0.99           estimate D2E/DX2                !
 ! R13   R(10,12)                1.0322         estimate D2E/DX2                !
 ! R14   R(10,26)                1.2398         estimate D2E/DX2                !
 ! R15   R(12,13)                1.3794         estimate D2E/DX2                !
 ! R16   R(13,14)                0.9822         estimate D2E/DX2                !
 ! R17   R(13,15)                1.0384         estimate D2E/DX2                !
 ! R18   R(15,16)                1.3638         estimate D2E/DX2                !
 ! R19   R(16,17)                1.0018         estimate D2E/DX2                !
 ! R20   R(16,18)                0.9924         estimate D2E/DX2                !
 ! R21   R(17,19)                1.5318         estimate D2E/DX2                !
 ! R22   R(19,20)                0.9833         estimate D2E/DX2                !
 ! R23   R(19,21)                1.0072         estimate D2E/DX2                !
 ! R24   R(21,25)                1.4981         estimate D2E/DX2                !
 ! R25   R(22,23)                1.0181         estimate D2E/DX2                !
 ! R26   R(22,24)                0.9828         estimate D2E/DX2                !
 ! R27   R(23,25)                1.4384         estimate D2E/DX2                !
 ! R28   R(25,26)                1.0936         estimate D2E/DX2                !
 ! R29   R(25,27)                0.9795         estimate D2E/DX2                !
 ! A1    A(2,1,4)              119.3231         estimate D2E/DX2                !
 ! A2    A(2,1,11)             119.9365         estimate D2E/DX2                !
 ! A3    A(2,1,18)             116.6034         estimate D2E/DX2                !
 ! A4    A(4,1,11)              97.8533         estimate D2E/DX2                !
 ! A5    A(4,1,18)             108.2668         estimate D2E/DX2                !
 ! A6    A(11,1,18)             89.8822         estimate D2E/DX2                !
 ! A7    A(1,2,3)              108.7435         estimate D2E/DX2                !
 ! A8    A(1,2,8)              110.6341         estimate D2E/DX2                !
 ! A9    A(1,2,9)              110.6616         estimate D2E/DX2                !
 ! A10   A(3,2,8)              109.5706         estimate D2E/DX2                !
 ! A11   A(3,2,9)              109.5895         estimate D2E/DX2                !
 ! A12   A(8,2,9)              107.6271         estimate D2E/DX2                !
 ! A13   A(2,3,5)              110.5641         estimate D2E/DX2                !
 ! A14   A(2,3,6)              109.9831         estimate D2E/DX2                !
 ! A15   A(2,3,7)              109.9337         estimate D2E/DX2                !
 ! A16   A(5,3,6)              108.8749         estimate D2E/DX2                !
 ! A17   A(5,3,7)              108.8495         estimate D2E/DX2                !
 ! A18   A(6,3,7)              108.5936         estimate D2E/DX2                !
 ! A19   A(1,4,22)             167.3814         estimate D2E/DX2                !
 ! A20   A(11,10,12)           102.7857         estimate D2E/DX2                !
 ! A21   A(11,10,26)           101.9655         estimate D2E/DX2                !
 ! A22   A(12,10,26)           108.6289         estimate D2E/DX2                !
 ! A23   A(1,11,10)            154.6766         estimate D2E/DX2                !
 ! A24   A(10,12,13)           166.538          estimate D2E/DX2                !
 ! A25   A(12,13,14)           111.8506         estimate D2E/DX2                !
 ! A26   A(12,13,15)           100.0663         estimate D2E/DX2                !
 ! A27   A(14,13,15)           104.5049         estimate D2E/DX2                !
 ! A28   A(13,15,16)           167.0006         estimate D2E/DX2                !
 ! A29   A(15,16,17)           104.2187         estimate D2E/DX2                !
 ! A30   A(15,16,18)           104.2856         estimate D2E/DX2                !
 ! A31   A(17,16,18)           103.3778         estimate D2E/DX2                !
 ! A32   A(16,17,19)           166.7202         estimate D2E/DX2                !
 ! A33   A(1,18,16)            165.0327         estimate D2E/DX2                !
 ! A34   A(17,19,20)           110.8067         estimate D2E/DX2                !
 ! A35   A(17,19,21)           105.2622         estimate D2E/DX2                !
 ! A36   A(20,19,21)           103.1912         estimate D2E/DX2                !
 ! A37   A(19,21,25)           167.2319         estimate D2E/DX2                !
 ! A38   A(4,22,23)            100.4102         estimate D2E/DX2                !
 ! A39   A(4,22,24)            111.3444         estimate D2E/DX2                !
 ! A40   A(23,22,24)           103.5253         estimate D2E/DX2                !
 ! A41   A(22,23,25)           164.2213         estimate D2E/DX2                !
 ! A42   A(21,25,23)            96.0912         estimate D2E/DX2                !
 ! A43   A(21,25,26)           109.8051         estimate D2E/DX2                !
 ! A44   A(21,25,27)           121.7352         estimate D2E/DX2                !
 ! A45   A(23,25,26)           101.9297         estimate D2E/DX2                !
 ! A46   A(23,25,27)           117.1567         estimate D2E/DX2                !
 ! A47   A(26,25,27)           108.1175         estimate D2E/DX2                !
 ! A48   A(10,26,25)           169.7579         estimate D2E/DX2                !
 ! D1    D(4,1,2,3)            -56.93           estimate D2E/DX2                !
 ! D2    D(4,1,2,8)           -177.3112         estimate D2E/DX2                !
 ! D3    D(4,1,2,9)             63.4913         estimate D2E/DX2                !
 ! D4    D(11,1,2,3)          -177.216          estimate D2E/DX2                !
 ! D5    D(11,1,2,8)            62.4029         estimate D2E/DX2                !
 ! D6    D(11,1,2,9)           -56.7946         estimate D2E/DX2                !
 ! D7    D(18,1,2,3)            76.1795         estimate D2E/DX2                !
 ! D8    D(18,1,2,8)           -44.2017         estimate D2E/DX2                !
 ! D9    D(18,1,2,9)          -163.3992         estimate D2E/DX2                !
 ! D10   D(2,1,4,22)          -160.0147         estimate D2E/DX2                !
 ! D11   D(11,1,4,22)          -29.0743         estimate D2E/DX2                !
 ! D12   D(18,1,4,22)           63.4098         estimate D2E/DX2                !
 ! D13   D(2,1,11,10)         -168.2935         estimate D2E/DX2                !
 ! D14   D(4,1,11,10)           61.1712         estimate D2E/DX2                !
 ! D15   D(18,1,11,10)         -47.2576         estimate D2E/DX2                !
 ! D16   D(2,1,18,16)          137.2735         estimate D2E/DX2                !
 ! D17   D(4,1,18,16)          -84.8157         estimate D2E/DX2                !
 ! D18   D(11,1,18,16)          13.4179         estimate D2E/DX2                !
 ! D19   D(1,2,3,5)            179.9356         estimate D2E/DX2                !
 ! D20   D(1,2,3,6)             59.6655         estimate D2E/DX2                !
 ! D21   D(1,2,3,7)            -59.8579         estimate D2E/DX2                !
 ! D22   D(8,2,3,5)            -59.028          estimate D2E/DX2                !
 ! D23   D(8,2,3,6)           -179.298          estimate D2E/DX2                !
 ! D24   D(8,2,3,7)             61.1786         estimate D2E/DX2                !
 ! D25   D(9,2,3,5)             58.8539         estimate D2E/DX2                !
 ! D26   D(9,2,3,6)            -61.4162         estimate D2E/DX2                !
 ! D27   D(9,2,3,7)            179.0604         estimate D2E/DX2                !
 ! D28   D(1,4,22,23)           -0.1889         estimate D2E/DX2                !
 ! D29   D(1,4,22,24)         -109.2813         estimate D2E/DX2                !
 ! D30   D(12,10,11,1)          77.4046         estimate D2E/DX2                !
 ! D31   D(26,10,11,1)         -35.1105         estimate D2E/DX2                !
 ! D32   D(11,10,12,13)        -41.0084         estimate D2E/DX2                !
 ! D33   D(26,10,12,13)         66.5            estimate D2E/DX2                !
 ! D34   D(11,10,26,25)         19.6762         estimate D2E/DX2                !
 ! D35   D(12,10,26,25)        -88.3931         estimate D2E/DX2                !
 ! D36   D(10,12,13,14)        109.8724         estimate D2E/DX2                !
 ! D37   D(10,12,13,15)         -0.3248         estimate D2E/DX2                !
 ! D38   D(12,13,15,16)         -6.5886         estimate D2E/DX2                !
 ! D39   D(14,13,15,16)       -122.4615         estimate D2E/DX2                !
 ! D40   D(13,15,16,17)        -69.9251         estimate D2E/DX2                !
 ! D41   D(13,15,16,18)         38.1835         estimate D2E/DX2                !
 ! D42   D(15,16,17,19)         43.2886         estimate D2E/DX2                !
 ! D43   D(18,16,17,19)        -65.4901         estimate D2E/DX2                !
 ! D44   D(15,16,18,1)         -34.8815         estimate D2E/DX2                !
 ! D45   D(17,16,18,1)          73.8472         estimate D2E/DX2                !
 ! D46   D(16,17,19,20)        -93.0674         estimate D2E/DX2                !
 ! D47   D(16,17,19,21)         17.8323         estimate D2E/DX2                !
 ! D48   D(17,19,21,25)         22.7509         estimate D2E/DX2                !
 ! D49   D(20,19,21,25)        138.9912         estimate D2E/DX2                !
 ! D50   D(19,21,25,23)         55.1589         estimate D2E/DX2                !
 ! D51   D(19,21,25,26)        -49.8746         estimate D2E/DX2                !
 ! D52   D(19,21,25,27)       -177.5612         estimate D2E/DX2                !
 ! D53   D(4,22,23,25)         -12.8271         estimate D2E/DX2                !
 ! D54   D(24,22,23,25)        102.3118         estimate D2E/DX2                !
 ! D55   D(22,23,25,21)        -68.9187         estimate D2E/DX2                !
 ! D56   D(22,23,25,26)         42.8471         estimate D2E/DX2                !
 ! D57   D(22,23,25,27)        160.5953         estimate D2E/DX2                !
 ! D58   D(21,25,26,10)         61.5401         estimate D2E/DX2                !
 ! D59   D(23,25,26,10)        -39.4919         estimate D2E/DX2                !
 ! D60   D(27,25,26,10)       -163.5451         estimate D2E/DX2                !
 --------------------------------------------------------------------------------
 Trust Radius=3.00D-01 FncErr=1.00D-07 GrdErr=1.00D-07
 Number of steps in this run=    147 maximum allowed number of steps=    162.
 GradGradGradGradGradGradGradGradGradGradGradGradGradGradGradGradGradGrad

 Leave Link  103 at Wed Dec  4 09:57:49 2019, MaxMem=  805306368 cpu:       0.1
 (Enter /home/programs/G09_64/g09/l202.exe)
                          Input orientation:                          
 ---------------------------------------------------------------------
 Center     Atomic      Atomic             Coordinates (Angstroms)
 Number     Number       Type             X           Y           Z
 ---------------------------------------------------------------------
      1          8           0       -1.051339   -0.769932   -0.150178
      2          6           0       -2.456199   -1.003871   -0.267878
      3          6           0       -2.720632   -1.761027   -1.568627
      4          1           0       -0.416534   -1.553776   -0.170405
      5          1           0       -3.779772   -1.955369   -1.687231
      6          1           0       -2.190117   -2.704478   -1.561863
      7          1           0       -2.375586   -1.177061   -2.412265
      8          1           0       -3.000897   -0.065064   -0.276483
      9          1           0       -2.819025   -1.586571    0.572455
     10          8           0        0.261125    0.436427    1.756779
     11          1           0       -0.438785   -0.013597    1.220375
     12          1           0        0.272245    1.390618    1.363333
     13          8           0        0.257280    2.509119    0.556252
     14          1           0       -0.571955    3.024783    0.661522
     15          1           0        0.167430    2.059467   -0.375438
     16          8           0        0.086192    1.208169   -1.437848
     17          1           0        1.016889    0.851576   -1.539159
     18          1           0       -0.421315    0.429714   -1.089622
     19          8           0        2.424608    0.281128   -1.341060
     20          1           0        3.087424    1.003868   -1.269161
     21          1           0        2.420607   -0.119837   -0.417078
     22          8           0        0.673133   -2.456686   -0.062010
     23          1           0        1.365450   -1.856982    0.382603
     24          1           0        1.066905   -2.649363   -0.941635
     25          8           0        2.085110   -0.728708    0.909929
     26          1           0        1.286768   -0.155408    1.389439
     27          1           0        2.774031   -0.912106    1.581557
 ---------------------------------------------------------------------
                    Distance matrix (angstroms):
                    1          2          3          4          5
     1  O    0.000000
     2  C    1.429060   0.000000
     3  C    2.404330   1.528122   0.000000
     4  H    1.008860   2.114741   2.703117   0.000000
     5  H    3.348453   2.161424   1.083334   3.711254   0.000000
     6  H    2.651818   2.153430   1.082401   2.530981   1.761785
     7  H    2.652626   2.152880   1.082496   3.000956   1.761583
     8  H    2.076913   1.085416   2.150459   2.984367   2.483970
     9  H    2.076972   1.085054   2.150430   2.514931   2.482988
    10  O    2.610431   3.682057   4.977751   2.852046   5.823293
    11  H    1.680976   2.695459   4.004856   2.075311   4.835994
    12  H    2.951367   3.979803   5.242763   3.390608   6.076216
    13  O    3.600514   4.514782   5.622919   4.182006   6.423601
    14  H    3.910055   4.543590   5.700382   4.656121   6.372491
    15  H    3.088954   4.034729   4.935664   3.665867   5.781013
    16  O    2.620106   3.567310   4.087969   3.080176   5.001584
    17  H    2.972562   4.137775   4.560222   3.116714   5.559570
    18  H    1.648829   2.621294   3.211798   2.186142   4.162330
    19  O    3.821666   5.159963   5.540368   3.579021   6.604247
    20  H    4.639811   5.980413   6.439552   4.475101   7.489342
    21  H    3.542353   4.958529   5.518324   3.188479   6.589929
    22  O    2.413859   3.456266   3.777761   1.419285   4.766657
    23  H    2.703036   3.969373   4.529080   1.890296   5.546819
    24  H    2.940344   3.946372   3.940519   1.998924   4.952557
    25  O    3.311018   4.699620   5.504914   2.847118   6.530450
    26  H    2.866148   4.180477   5.233299   2.699960   6.194803
    27  H    4.201497   5.548345   6.390277   3.696054   7.397682
                    6          7          8          9         10
     6  H    0.000000
     7  H    1.758006   0.000000
     8  H    3.045665   2.487794   0.000000
     9  H    2.490091   3.045142   1.751786   0.000000
    10  O    5.185292   5.190041   3.876394   3.870719   0.000000
    11  H    4.248394   4.277958   2.967768   2.925678   0.990013
    12  H    5.602661   5.278175   3.939729   4.364068   1.032184
    13  O    6.136592   5.415903   4.235042   5.122362   2.395273
    14  H    6.355023   5.509696   4.040640   5.130482   2.931416
    15  H    5.446174   4.592463   3.815982   4.807391   2.681303
    16  O    4.528330   3.563589   3.535535   4.504684   3.291174
    17  H    4.788624   4.048033   4.310126   5.011757   3.406866
    18  H    3.629715   2.854871   2.749590   3.546395   2.927075
    19  O    5.500753   5.129879   5.539790   5.886045   3.781717
    20  H    6.456775   5.992297   6.260645   6.707314   4.179266
    21  H    5.408297   5.301129   5.423603   5.530301   3.114233
    22  O    3.241783   4.056579   4.389117   3.654424   3.442070
    23  H    4.140200   4.718997   4.765537   4.197499   2.892684
    24  H    3.316008   4.022583   4.864981   4.303771   4.177657
    25  O    5.318927   5.579947   5.264548   4.990026   2.324138
    26  H    5.224622   5.376762   4.600818   4.424164   1.239819
    27  H    6.143000   6.522222   6.125323   5.723239   2.857261
                   11         12         13         14         15
    11  H    0.000000
    12  H    1.580449   0.000000
    13  O    2.699937   1.379365   0.000000
    14  H    3.092217   1.968682   0.982152   0.000000
    15  H    2.685463   1.865923   1.038415   1.598065   0.000000
    16  O    2.972282   2.813275   2.387085   2.853173   1.363827
    17  H    3.237675   3.044589   2.777625   3.477104   1.880114
    18  H    2.352215   2.724216   2.737392   3.134259   1.874240
    19  O    3.853159   3.630066   3.641572   4.529610   3.031463
    20  H    4.434769   3.873607   3.688852   4.604638   3.231005
    21  H    3.296765   3.172822   3.541012   4.472968   3.134949
    22  O    2.974820   4.122385   5.021394   5.667473   4.555174
    23  H    2.712046   3.564244   4.507886   5.259559   4.165147
    24  H    3.726748   4.718666   5.432227   6.119796   4.827289
    25  O    2.641554   2.825526   3.734913   4.605474   3.619887
    26  H    1.739605   1.849361   2.975525   3.754774   3.045222
    27  H    3.355586   3.407212   4.369218   5.247969   4.410719
                   16         17         18         19         20
    16  O    0.000000
    17  H    1.001808   0.000000
    18  H    0.992379   1.564763   0.000000
    19  O    2.517332   1.531772   2.860870   0.000000
    20  H    3.012904   2.093611   3.559935   0.983284   0.000000
    21  H    2.873163   2.042825   2.971673   1.007240   1.559937
    22  O    3.958357   3.639332   3.253476   3.492744   4.388787
    23  H    3.787571   3.339304   3.254067   2.943526   3.725316
    24  H    4.011057   3.551916   3.423071   3.254332   4.187585
    25  O    3.641322   3.104259   3.409151   2.490377   2.958866
    26  H    3.360696   3.108623   3.066865   2.990128   3.413860
    27  H    4.564740   3.992116   4.375604   3.176097   3.449024
                   21         22         23         24         25
    21  H    0.000000
    22  O    2.939490   0.000000
    23  H    2.184152   1.018150   0.000000
    24  H    2.916534   0.982813   1.571815   0.000000
    25  O    1.498075   2.433979   1.438397   2.855512   0.000000
    26  H    2.133157   2.789110   1.978703   3.420827   1.093596
    27  H    2.178793   3.082339   2.077109   3.506970   0.979455
                   26         27
    26  H    0.000000
    27  H    1.679718   0.000000
 Stoichiometry    C2H18O7
 Framework group  C1[X(C2H18O7)]
 Deg. of freedom    75
 Full point group                 C1      NOp   1
 Largest Abelian subgroup         C1      NOp   1
 Largest concise Abelian subgroup C1      NOp   1
                         Standard orientation:                         
 ---------------------------------------------------------------------
 Center     Atomic      Atomic             Coordinates (Angstroms)
 Number     Number       Type             X           Y           Z
 ---------------------------------------------------------------------
      1          8           0       -1.193086   -0.084561   -0.293944
      2          6           0       -2.512709   -0.597637   -0.487746
      3          6           0       -3.410174   -0.081612    0.636280
      4          1           0       -1.054041    0.913153   -0.238890
      5          1           0       -4.420866   -0.452984    0.517127
      6          1           0       -3.431211    1.000531    0.625571
      7          1           0       -3.027595   -0.409934    1.594213
      8          1           0       -2.506275   -1.682995   -0.478626
      9          1           0       -2.910320   -0.279450   -1.445872
     10          8           0        0.944838   -0.453763   -1.745604
     11          1           0        0.011696   -0.422778   -1.416348
     12          1           0        1.335252   -1.270166   -1.249149
     13          8           0        1.689329   -2.241780   -0.336327
     14          1           0        1.274422   -3.107348   -0.544330
     15          1           0        1.175745   -1.901342    0.499520
     16          8           0        0.440321   -1.210832    1.417328
     17          1           0        1.019845   -0.430634    1.660357
     18          1           0       -0.289323   -0.798214    0.886119
     19          8           0        1.962393    0.776610    1.682536
     20          1           0        2.891847    0.491415    1.829597
     21          1           0        1.974618    1.120871    0.736034
     22          8           0       -0.563178    2.244835   -0.231900
     23          1           0        0.416421    2.081002   -0.455892
     24          1           0       -0.532487    2.609985    0.680046
     25          8           0        1.699668    1.476037   -0.693123
     26          1           0        1.425841    0.576972   -1.252276
     27          1           0        2.341447    1.985030   -1.230132
 ---------------------------------------------------------------------
 Rotational constants (GHZ):      1.1448192      0.7614552      0.6546614
 Leave Link  202 at Wed Dec  4 09:57:49 2019, MaxMem=  805306368 cpu:       0.0
 (Enter /home/programs/G09_64/g09/l120.exe)
 ONIOM: saving gridpoint 17
 ONIOM: generating point  3 -- low level on real system.
 Leave Link  120 at Wed Dec  4 09:57:49 2019, MaxMem=  805306368 cpu:       0.0
 (Enter /home/programs/G09_64/g09/l301.exe)
 Standard basis: STO-3G (5D, 7F)
 Ernie: Thresh=  0.10000D-02 Tol=  0.10000D-05 Strict=F.
 There are    63 symmetry adapted basis functions of A   symmetry.
 Integral buffers will be    131072 words long.
 Raffenetti 1 integral format.
 Two-electron integral symmetry is turned on.
    63 basis functions,   189 primitive gaussians,    63 cartesian basis functions
    43 alpha electrons       43 beta electrons
       nuclear repulsion energy       615.2095775751 Hartrees.
 IExCor=    0 DFT=F Ex=HF Corr=None ExCW=0 ScaHFX=  1.000000
 ScaDFX=  1.000000  1.000000  1.000000  1.000000 ScalE2=  1.000000  1.000000
 IRadAn=      0 IRanWt=     -1 IRanGd=            0 ICorTp=0
 NAtoms=   27 NActive=   27 NUniq=   27 SFac= 1.00D+00 NAtFMM=   50 NAOKFM=F Big=F
 Leave Link  301 at Wed Dec  4 09:57:49 2019, MaxMem=  805306368 cpu:       0.3
 (Enter /home/programs/G09_64/g09/l302.exe)
 NPDir=0 NMtPBC=     1 NCelOv=     1 NCel=       1 NClECP=     1 NCelD=      1
         NCelK=      1 NCelE2=     1 NClLst=     1 CellRange=     0.0.
 One-electron integrals computed using PRISM.
 NBasis=    63 RedAO= T  NBF=    63
 NBsUse=    63 1.00D-06 NBFU=    63
 Leave Link  302 at Wed Dec  4 09:57:49 2019, MaxMem=  805306368 cpu:       1.0
 (Enter /home/programs/G09_64/g09/l303.exe)
 DipDrv:  MaxL=1.
 Leave Link  303 at Wed Dec  4 09:57:49 2019, MaxMem=  805306368 cpu:       0.3
 (Enter /home/programs/G09_64/g09/l401.exe)
 Harris functional with IExCor=  205 diagonalized for initial guess.
 ExpMin= 1.69D-01 ExpMax= 1.31D+02 ExpMxC= 1.31D+02 IAcc=1 IRadAn=         1 AccDes= 0.00D+00
 HarFok:  IExCor=  205 AccDes= 0.00D+00 IRadAn=         1 IDoV= 1
 ScaDFX=  1.000000  1.000000  1.000000  1.000000
 FoFCou: FMM=F IPFlag=           0 FMFlag=      100000 FMFlg1=           0
         NFxFlg=           0 DoJE=T BraDBF=F KetDBF=T FulRan=T
         Omega=  0.000000  0.000000  1.000000  0.000000  0.000000 ICntrl=     500 IOpCl=  0
         NMat0=    1 NMatS0=    1 NMatT0=    0 NMatD0=    1 NMtDS0=    0 NMtDT0=    0
         I1Cent=           4 NGrid=           0.
 Petite list used in FoFCou.
 Harris En= -602.785997911170    
 Initial guess orbital symmetries:
       Occupied  (A) (A) (A) (A) (A) (A) (A) (A) (A) (A) (A) (A)
                 (A) (A) (A) (A) (A) (A) (A) (A) (A) (A) (A) (A)
                 (A) (A) (A) (A) (A) (A) (A) (A) (A) (A) (A) (A)
                 (A) (A) (A) (A) (A) (A) (A)
       Virtual   (A) (A) (A) (A) (A) (A) (A) (A) (A) (A) (A) (A)
                 (A) (A) (A) (A) (A) (A) (A) (A)
 The electronic state of the initial guess is 1-A.
 Leave Link  401 at Wed Dec  4 09:57:50 2019, MaxMem=  805306368 cpu:       1.9
 (Enter /home/programs/G09_64/g09/l502.exe)
 Closed shell SCF:
 Requested convergence on RMS density matrix=1.00D-08 within 128 cycles.
 Requested convergence on MAX density matrix=1.00D-06.
 Requested convergence on             energy=1.00D-06.
 No special actions if energy rises.
 Using DIIS extrapolation, IDIIS=  1040.
 Integral symmetry usage will be decided dynamically.
 Keep R1 ints in memory in canonical form, NReq=2864238.
 IEnd=       31088 IEndB=       31088 NGot=   805306368 MDV=   803262789
 LenX=   803262789 LenY=   803258379
 Symmetry not used in FoFDir.
 MinBra= 0 MaxBra= 1 Meth= 1.
 IRaf=       0 NMat=   1 IRICut=       1 DoRegI=T DoRafI=F ISym2E= 0 JSym2E=0.

 Cycle   1  Pass 1  IDiag  1:
 E= -601.839436439912    
 DIIS: error= 3.41D-02 at cycle   1 NSaved=   1.
 NSaved= 1 IEnMin= 1 EnMin= -601.839436439912     IErMin= 1 ErrMin= 3.41D-02
 ErrMax= 3.41D-02 EMaxC= 1.00D-01 BMatC= 1.74D-01 BMatP= 1.74D-01
 IDIUse=3 WtCom= 6.59D-01 WtEn= 3.41D-01
 Coeff-Com:  0.100D+01
 Coeff-En:   0.100D+01
 Coeff:      0.100D+01
 Gap=     0.894 Goal=   None    Shift=    0.000
 GapD=    0.894 DampG=2.000 DampE=0.500 DampFc=1.0000 IDamp=-1.
 RMSDP=8.93D-03 MaxDP=1.14D-01              OVMax= 0.00D+00

 Cycle   2  Pass 1  IDiag  1:
 E= -602.043043144252     Delta-E=       -0.203606704340 Rises=F Damp=F
 DIIS: error= 6.43D-03 at cycle   2 NSaved=   2.
 NSaved= 2 IEnMin= 2 EnMin= -602.043043144252     IErMin= 2 ErrMin= 6.43D-03
 ErrMax= 6.43D-03 EMaxC= 1.00D-01 BMatC= 4.60D-03 BMatP= 1.74D-01
 IDIUse=3 WtCom= 9.36D-01 WtEn= 6.43D-02
 Coeff-Com:  0.167D-01 0.983D+00
 Coeff-En:   0.000D+00 0.100D+01
 Coeff:      0.156D-01 0.984D+00
 Gap=     0.860 Goal=   None    Shift=    0.000
 RMSDP=1.76D-03 MaxDP=2.37D-02 DE=-2.04D-01 OVMax= 0.00D+00

 Cycle   3  Pass 1  IDiag  1:
 E= -602.050037675443     Delta-E=       -0.006994531191 Rises=F Damp=F
 DIIS: error= 1.33D-03 at cycle   3 NSaved=   3.
 NSaved= 3 IEnMin= 3 EnMin= -602.050037675443     IErMin= 3 ErrMin= 1.33D-03
 ErrMax= 1.33D-03 EMaxC= 1.00D-01 BMatC= 3.54D-04 BMatP= 4.60D-03
 IDIUse=3 WtCom= 9.87D-01 WtEn= 1.33D-02
 Coeff-Com: -0.205D-01-0.202D-01 0.104D+01
 Coeff-En:   0.000D+00 0.000D+00 0.100D+01
 Coeff:     -0.202D-01-0.199D-01 0.104D+01
 Gap=     0.856 Goal=   None    Shift=    0.000
 RMSDP=6.15D-04 MaxDP=5.06D-03 DE=-6.99D-03 OVMax= 0.00D+00

 Cycle   4  Pass 1  IDiag  1:
 E= -602.050769752385     Delta-E=       -0.000732076943 Rises=F Damp=F
 DIIS: error= 7.11D-04 at cycle   4 NSaved=   4.
 NSaved= 4 IEnMin= 4 EnMin= -602.050769752385     IErMin= 4 ErrMin= 7.11D-04
 ErrMax= 7.11D-04 EMaxC= 1.00D-01 BMatC= 3.31D-05 BMatP= 3.54D-04
 IDIUse=3 WtCom= 9.93D-01 WtEn= 7.11D-03
 Coeff-Com:  0.370D-03-0.599D-01-0.649D-01 0.112D+01
 Coeff-En:   0.000D+00 0.000D+00 0.000D+00 0.100D+01
 Coeff:      0.367D-03-0.595D-01-0.644D-01 0.112D+01
 Gap=     0.856 Goal=   None    Shift=    0.000
 RMSDP=2.35D-04 MaxDP=2.68D-03 DE=-7.32D-04 OVMax= 0.00D+00

 Cycle   5  Pass 1  IDiag  1:
 E= -602.050850094577     Delta-E=       -0.000080342191 Rises=F Damp=F
 DIIS: error= 1.54D-04 at cycle   5 NSaved=   5.
 NSaved= 5 IEnMin= 5 EnMin= -602.050850094577     IErMin= 5 ErrMin= 1.54D-04
 ErrMax= 1.54D-04 EMaxC= 1.00D-01 BMatC= 2.23D-06 BMatP= 3.31D-05
 IDIUse=3 WtCom= 9.98D-01 WtEn= 1.54D-03
 Coeff-Com:  0.949D-03 0.473D-02-0.546D-01-0.584D-01 0.111D+01
 Coeff-En:   0.000D+00 0.000D+00 0.000D+00 0.000D+00 0.100D+01
 Coeff:      0.948D-03 0.472D-02-0.545D-01-0.583D-01 0.111D+01
 Gap=     0.855 Goal=   None    Shift=    0.000
 RMSDP=6.21D-05 MaxDP=5.89D-04 DE=-8.03D-05 OVMax= 0.00D+00

 Cycle   6  Pass 1  IDiag  1:
 E= -602.050855611896     Delta-E=       -0.000005517319 Rises=F Damp=F
 DIIS: error= 6.25D-05 at cycle   6 NSaved=   6.
 NSaved= 6 IEnMin= 6 EnMin= -602.050855611896     IErMin= 6 ErrMin= 6.25D-05
 ErrMax= 6.25D-05 EMaxC= 1.00D-01 BMatC= 1.59D-07 BMatP= 2.23D-06
 IDIUse=1 WtCom= 1.00D+00 WtEn= 0.00D+00
 Coeff-Com: -0.694D-04 0.506D-02 0.702D-02-0.942D-01-0.385D-01 0.112D+01
 Coeff:     -0.694D-04 0.506D-02 0.702D-02-0.942D-01-0.385D-01 0.112D+01
 Gap=     0.855 Goal=   None    Shift=    0.000
 RMSDP=1.82D-05 MaxDP=2.40D-04 DE=-5.52D-06 OVMax= 0.00D+00

 Cycle   7  Pass 1  IDiag  1:
 E= -602.050856003226     Delta-E=       -0.000000391330 Rises=F Damp=F
 DIIS: error= 6.40D-06 at cycle   7 NSaved=   7.
 NSaved= 7 IEnMin= 7 EnMin= -602.050856003226     IErMin= 7 ErrMin= 6.40D-06
 ErrMax= 6.40D-06 EMaxC= 1.00D-01 BMatC= 4.10D-09 BMatP= 1.59D-07
 IDIUse=1 WtCom= 1.00D+00 WtEn= 0.00D+00
 Coeff-Com: -0.266D-04-0.301D-03 0.192D-02 0.493D-02-0.430D-01-0.316D-01
 Coeff-Com:  0.107D+01
 Coeff:     -0.266D-04-0.301D-03 0.192D-02 0.493D-02-0.430D-01-0.316D-01
 Coeff:      0.107D+01
 Gap=     0.855 Goal=   None    Shift=    0.000
 RMSDP=2.51D-06 MaxDP=2.58D-05 DE=-3.91D-07 OVMax= 0.00D+00

 Cycle   8  Pass 1  IDiag  1:
 E= -602.050856012650     Delta-E=       -0.000000009424 Rises=F Damp=F
 DIIS: error= 1.09D-06 at cycle   8 NSaved=   8.
 NSaved= 8 IEnMin= 8 EnMin= -602.050856012650     IErMin= 8 ErrMin= 1.09D-06
 ErrMax= 1.09D-06 EMaxC= 1.00D-01 BMatC= 2.11D-10 BMatP= 4.10D-09
 IDIUse=1 WtCom= 1.00D+00 WtEn= 0.00D+00
 Coeff-Com:  0.841D-05-0.158D-03-0.641D-03 0.307D-02 0.897D-02-0.399D-01
 Coeff-Com: -0.175D+00 0.120D+01
 Coeff:      0.841D-05-0.158D-03-0.641D-03 0.307D-02 0.897D-02-0.399D-01
 Coeff:     -0.175D+00 0.120D+01
 Gap=     0.855 Goal=   None    Shift=    0.000
 RMSDP=5.97D-07 MaxDP=7.13D-06 DE=-9.42D-09 OVMax= 0.00D+00

 Cycle   9  Pass 1  IDiag  1:
 E= -602.050856013173     Delta-E=       -0.000000000523 Rises=F Damp=F
 DIIS: error= 3.47D-07 at cycle   9 NSaved=   9.
 NSaved= 9 IEnMin= 9 EnMin= -602.050856013173     IErMin= 9 ErrMin= 3.47D-07
 ErrMax= 3.47D-07 EMaxC= 1.00D-01 BMatC= 8.48D-12 BMatP= 2.11D-10
 IDIUse=1 WtCom= 1.00D+00 WtEn= 0.00D+00
 Coeff-Com:  0.171D-05 0.117D-04-0.118D-03-0.177D-03 0.247D-02 0.491D-03
 Coeff-Com: -0.566D-01 0.139D-01 0.104D+01
 Coeff:      0.171D-05 0.117D-04-0.118D-03-0.177D-03 0.247D-02 0.491D-03
 Coeff:     -0.566D-01 0.139D-01 0.104D+01
 Gap=     0.855 Goal=   None    Shift=    0.000
 RMSDP=1.18D-07 MaxDP=1.35D-06 DE=-5.23D-10 OVMax= 0.00D+00

 Cycle  10  Pass 1  IDiag  1:
 E= -602.050856013195     Delta-E=       -0.000000000022 Rises=F Damp=F
 DIIS: error= 5.69D-08 at cycle  10 NSaved=  10.
 NSaved=10 IEnMin=10 EnMin= -602.050856013195     IErMin=10 ErrMin= 5.69D-08
 ErrMax= 5.69D-08 EMaxC= 1.00D-01 BMatC= 3.80D-13 BMatP= 8.48D-12
 IDIUse=1 WtCom= 1.00D+00 WtEn= 0.00D+00
 Coeff-Com: -0.704D-06 0.288D-05 0.544D-04-0.733D-04-0.942D-03 0.126D-02
 Coeff-Com:  0.212D-01-0.503D-01-0.251D+00 0.128D+01
 Coeff:     -0.704D-06 0.288D-05 0.544D-04-0.733D-04-0.942D-03 0.126D-02
 Coeff:      0.212D-01-0.503D-01-0.251D+00 0.128D+01
 Gap=     0.855 Goal=   None    Shift=    0.000
 RMSDP=2.71D-08 MaxDP=2.88D-07 DE=-2.18D-11 OVMax= 0.00D+00

 Cycle  11  Pass 1  IDiag  1:
 E= -602.050856013193     Delta-E=        0.000000000002 Rises=F Damp=F
 DIIS: error= 1.35D-08 at cycle  11 NSaved=  11.
 NSaved=11 IEnMin=10 EnMin= -602.050856013195     IErMin=11 ErrMin= 1.35D-08
 ErrMax= 1.35D-08 EMaxC= 1.00D-01 BMatC= 1.11D-14 BMatP= 3.80D-13
 IDIUse=1 WtCom= 1.00D+00 WtEn= 0.00D+00
 Coeff-Com: -0.386D-08-0.554D-06-0.174D-06 0.101D-04-0.429D-05-0.106D-03
 Coeff-Com:  0.554D-04 0.330D-02-0.108D-01-0.102D+00 0.111D+01
 Coeff:     -0.386D-08-0.554D-06-0.174D-06 0.101D-04-0.429D-05-0.106D-03
 Coeff:      0.554D-04 0.330D-02-0.108D-01-0.102D+00 0.111D+01
 Gap=     0.855 Goal=   None    Shift=    0.000
 RMSDP=4.18D-09 MaxDP=4.55D-08 DE= 2.05D-12 OVMax= 0.00D+00

 SCF Done:  E(RHF) =  -602.050856013     A.U. after   11 cycles
             Convg  =    0.4182D-08             -V/T =  2.0049
 KE= 5.991339639709D+02 PE=-2.661115933106D+03 EE= 8.447215355471D+02
 Leave Link  502 at Wed Dec  4 09:57:50 2019, MaxMem=  805306368 cpu:       1.6
 (Enter /home/programs/G09_64/g09/l601.exe)
 Copying SCF densities to generalized density rwf, IOpCl= 0 IROHF=0.

 **********************************************************************

            Population analysis using the SCF density.

 **********************************************************************

 Orbital symmetries:
       Occupied  (A) (A) (A) (A) (A) (A) (A) (A) (A) (A) (A) (A)
                 (A) (A) (A) (A) (A) (A) (A) (A) (A) (A) (A) (A)
                 (A) (A) (A) (A) (A) (A) (A) (A) (A) (A) (A) (A)
                 (A) (A) (A) (A) (A) (A) (A)
       Virtual   (A) (A) (A) (A) (A) (A) (A) (A) (A) (A) (A) (A)
                 (A) (A) (A) (A) (A) (A) (A) (A)
 The electronic state is 1-A.
 Alpha  occ. eigenvalues --  -20.22736 -20.21580 -20.20928 -20.20710 -20.20623
 Alpha  occ. eigenvalues --  -20.19934 -20.19453 -11.09304 -11.03929  -1.30599
 Alpha  occ. eigenvalues --   -1.27664  -1.26876  -1.26269  -1.24448  -1.21745
 Alpha  occ. eigenvalues --   -1.20671  -0.97163  -0.81089  -0.65722  -0.64680
 Alpha  occ. eigenvalues --   -0.64077  -0.63074  -0.62216  -0.62013  -0.60848
 Alpha  occ. eigenvalues --   -0.58746  -0.55951  -0.50932  -0.50779  -0.50334
 Alpha  occ. eigenvalues --   -0.48142  -0.47134  -0.44945  -0.43991  -0.41748
 Alpha  occ. eigenvalues --   -0.39441  -0.35630  -0.35034  -0.34571  -0.33632
 Alpha  occ. eigenvalues --   -0.33328  -0.32562  -0.31695
 Alpha virt. eigenvalues --    0.53839   0.58639   0.61564   0.63512   0.64203
 Alpha virt. eigenvalues --    0.64745   0.67596   0.70194   0.71894   0.72406
 Alpha virt. eigenvalues --    0.75991   0.77654   0.77969   0.80253   0.80650
 Alpha virt. eigenvalues --    0.82127   0.82987   0.84423   0.86571   0.86869
          Condensed to atoms (all electrons):
              1          2          3          4          5          6
     1  O    7.943000   0.273779  -0.020105   0.233430   0.000638  -0.001117
     2  C    0.273779   4.688198   0.357421  -0.026613  -0.018789  -0.021580
     3  C   -0.020105   0.357421   4.751597  -0.001595   0.383221   0.385520
     4  H    0.233430  -0.026613  -0.001595   0.474921  -0.000014   0.000427
     5  H    0.000638  -0.018789   0.383221  -0.000014   0.616892  -0.020846
     6  H   -0.001117  -0.021580   0.385520   0.000427  -0.020846   0.618574
     7  H   -0.000743  -0.021483   0.385546   0.000029  -0.020870  -0.022052
     8  H   -0.016845   0.382181  -0.023861   0.002082  -0.001548   0.001883
     9  H   -0.016958   0.377863  -0.025294  -0.001222  -0.001675  -0.002488
    10  O   -0.007356   0.000134  -0.000001   0.000243   0.000000   0.000000
    11  H    0.024467  -0.001934   0.000100  -0.004123  -0.000002   0.000001
    12  H    0.000459  -0.000012   0.000000   0.000008   0.000000   0.000000
    13  O   -0.000014   0.000001   0.000000   0.000002   0.000000   0.000000
    14  H    0.000005  -0.000001   0.000000   0.000000   0.000000   0.000000
    15  H    0.000158  -0.000004   0.000000  -0.000002   0.000000   0.000000
    16  O   -0.007752   0.000174  -0.000003   0.000341   0.000000   0.000000
    17  H    0.000526  -0.000004   0.000001  -0.000039   0.000000   0.000000
    18  H    0.027615  -0.002864  -0.000093  -0.003356  -0.000003   0.000001
    19  O   -0.000003   0.000000   0.000000   0.000005   0.000000   0.000000
    20  H    0.000000   0.000000   0.000000  -0.000001   0.000000   0.000000
    21  H    0.000003   0.000000   0.000000   0.000012   0.000000   0.000000
    22  O   -0.020466   0.000513  -0.000005   0.065184   0.000000  -0.000055
    23  H    0.000583   0.000001   0.000002  -0.008340   0.000000   0.000001
    24  H    0.000950  -0.000036  -0.000001  -0.007515   0.000000   0.000016
    25  O   -0.000039   0.000000   0.000000   0.000214   0.000000   0.000000
    26  H    0.000268  -0.000001   0.000000  -0.000055   0.000000   0.000000
    27  H    0.000003   0.000000   0.000000   0.000000   0.000000   0.000000
              7          8          9         10         11         12
     1  O   -0.000743  -0.016845  -0.016958  -0.007356   0.024467   0.000459
     2  C   -0.021483   0.382181   0.377863   0.000134  -0.001934  -0.000012
     3  C    0.385546  -0.023861  -0.025294  -0.000001   0.000100   0.000000
     4  H    0.000029   0.002082  -0.001222   0.000243  -0.004123   0.000008
     5  H   -0.020870  -0.001548  -0.001675   0.000000  -0.000002   0.000000
     6  H   -0.022052   0.001883  -0.002488   0.000000   0.000001   0.000000
     7  H    0.614981  -0.002649   0.001945   0.000000   0.000000   0.000000
     8  H   -0.002649   0.625637  -0.026469   0.000010  -0.000232   0.000000
     9  H    0.001945  -0.026469   0.641719   0.000012  -0.000224  -0.000001
    10  O    0.000000   0.000010   0.000012   7.921543   0.252829   0.225758
    11  H    0.000000  -0.000232  -0.000224   0.252829   0.552318  -0.031033
    12  H    0.000000   0.000000  -0.000001   0.225758  -0.031033   0.485222
    13  O    0.000000   0.000000   0.000000  -0.023628   0.001313   0.073456
    14  H    0.000000   0.000000   0.000000   0.001100  -0.000085  -0.008564
    15  H    0.000000  -0.000001   0.000000   0.000628  -0.000050  -0.008568
    16  O   -0.000022   0.000049  -0.000006  -0.000062  -0.000068   0.000321
    17  H    0.000002  -0.000001   0.000000   0.000014   0.000027   0.000011
    18  H    0.000063  -0.000600   0.000191  -0.000100  -0.000677   0.000020
    19  O    0.000000   0.000000   0.000000  -0.000006   0.000002   0.000007
    20  H    0.000000   0.000000   0.000000   0.000002   0.000000  -0.000001
    21  H    0.000000   0.000000   0.000000   0.000191  -0.000001  -0.000023
    22  O   -0.000002  -0.000014   0.000028  -0.000026   0.000065   0.000003
    23  H    0.000000   0.000001   0.000000   0.000183  -0.000079   0.000008
    24  H    0.000002   0.000002  -0.000002   0.000003   0.000004   0.000000
    25  O    0.000000   0.000000   0.000000  -0.033407   0.001194   0.000982
    26  H    0.000000   0.000000   0.000000   0.119503  -0.015920  -0.010654
    27  H    0.000000   0.000000   0.000000   0.001516   0.000010  -0.000038
             13         14         15         16         17         18
     1  O   -0.000014   0.000005   0.000158  -0.007752   0.000526   0.027615
     2  C    0.000001  -0.000001  -0.000004   0.000174  -0.000004  -0.002864
     3  C    0.000000   0.000000   0.000000  -0.000003   0.000001  -0.000093
     4  H    0.000002   0.000000  -0.000002   0.000341  -0.000039  -0.003356
     5  H    0.000000   0.000000   0.000000   0.000000   0.000000  -0.000003
     6  H    0.000000   0.000000   0.000000   0.000000   0.000000   0.000001
     7  H    0.000000   0.000000   0.000000  -0.000022   0.000002   0.000063
     8  H    0.000000   0.000000  -0.000001   0.000049  -0.000001  -0.000600
     9  H    0.000000   0.000000   0.000000  -0.000006   0.000000   0.000191
    10  O   -0.023628   0.001100   0.000628  -0.000062   0.000014  -0.000100
    11  H    0.001313  -0.000085  -0.000050  -0.000068   0.000027  -0.000677
    12  H    0.073456  -0.008564  -0.008568   0.000321   0.000011   0.000020
    13  O    7.931563   0.255439   0.221334  -0.024852   0.000790   0.000965
    14  H    0.255439   0.627637  -0.032305   0.001305   0.000007  -0.000050
    15  H    0.221334  -0.032305   0.490676   0.077505  -0.009236  -0.009925
    16  O   -0.024852   0.001305   0.077505   7.922234   0.246848   0.252273
    17  H    0.000790   0.000007  -0.009236   0.246848   0.519969  -0.034955
    18  H    0.000965  -0.000050  -0.009925   0.252273  -0.034955   0.550356
    19  O   -0.000008   0.000001   0.000218  -0.013187   0.041782   0.000832
    20  H    0.000005   0.000000  -0.000020   0.000645  -0.005260  -0.000007
    21  H    0.000005   0.000000  -0.000001   0.000558  -0.005230  -0.000065
    22  O    0.000000   0.000000   0.000000  -0.000002   0.000006   0.000087
    23  H    0.000000   0.000000   0.000000   0.000000   0.000009   0.000004
    24  H    0.000000   0.000000   0.000000   0.000002   0.000001  -0.000006
    25  O   -0.000007   0.000001   0.000002  -0.000007   0.000110   0.000003
    26  H    0.000384  -0.000003  -0.000001   0.000012  -0.000004   0.000025
    27  H    0.000001   0.000000   0.000000   0.000001  -0.000002   0.000000
             19         20         21         22         23         24
     1  O   -0.000003   0.000000   0.000003  -0.020466   0.000583   0.000950
     2  C    0.000000   0.000000   0.000000   0.000513   0.000001  -0.000036
     3  C    0.000000   0.000000   0.000000  -0.000005   0.000002  -0.000001
     4  H    0.000005  -0.000001   0.000012   0.065184  -0.008340  -0.007515
     5  H    0.000000   0.000000   0.000000   0.000000   0.000000   0.000000
     6  H    0.000000   0.000000   0.000000  -0.000055   0.000001   0.000016
     7  H    0.000000   0.000000   0.000000  -0.000002   0.000000   0.000002
     8  H    0.000000   0.000000   0.000000  -0.000014   0.000001   0.000002
     9  H    0.000000   0.000000   0.000000   0.000028   0.000000  -0.000002
    10  O   -0.000006   0.000002   0.000191  -0.000026   0.000183   0.000003
    11  H    0.000002   0.000000  -0.000001   0.000065  -0.000079   0.000004
    12  H    0.000007  -0.000001  -0.000023   0.000003   0.000008   0.000000
    13  O   -0.000008   0.000005   0.000005   0.000000   0.000000   0.000000
    14  H    0.000001   0.000000   0.000000   0.000000   0.000000   0.000000
    15  H    0.000218  -0.000020  -0.000001   0.000000   0.000000   0.000000
    16  O   -0.013187   0.000645   0.000558  -0.000002   0.000000   0.000002
    17  H    0.041782  -0.005260  -0.005230   0.000006   0.000009   0.000001
    18  H    0.000832  -0.000007  -0.000065   0.000087   0.000004  -0.000006
    19  O    7.902862   0.256582   0.243163  -0.000012  -0.000064   0.000015
    20  H    0.256582   0.623844  -0.037557   0.000002   0.000007  -0.000002
    21  H    0.243163  -0.037557   0.516532  -0.000056  -0.001685   0.000013
    22  O   -0.000012   0.000002  -0.000056   7.900545   0.235734   0.257105
    23  H   -0.000064   0.000007  -0.001685   0.235734   0.499314  -0.035397
    24  H    0.000015  -0.000002   0.000013   0.257105  -0.035397   0.616462
    25  O   -0.014543   0.000894   0.045355  -0.018989   0.057903   0.001095
    26  H    0.000380  -0.000019  -0.003523   0.000333  -0.005380   0.000013
    27  H    0.000689  -0.000094  -0.004295   0.000815  -0.005814  -0.000052
             25         26         27
     1  O   -0.000039   0.000268   0.000003
     2  C    0.000000  -0.000001   0.000000
     3  C    0.000000   0.000000   0.000000
     4  H    0.000214  -0.000055   0.000000
     5  H    0.000000   0.000000   0.000000
     6  H    0.000000   0.000000   0.000000
     7  H    0.000000   0.000000   0.000000
     8  H    0.000000   0.000000   0.000000
     9  H    0.000000   0.000000   0.000000
    10  O   -0.033407   0.119503   0.001516
    11  H    0.001194  -0.015920   0.000010
    12  H    0.000982  -0.010654  -0.000038
    13  O   -0.000007   0.000384   0.000001
    14  H    0.000001  -0.000003   0.000000
    15  H    0.000002  -0.000001   0.000000
    16  O   -0.000007   0.000012   0.000001
    17  H    0.000110  -0.000004  -0.000002
    18  H    0.000003   0.000025   0.000000
    19  O   -0.014543   0.000380   0.000689
    20  H    0.000894  -0.000019  -0.000094
    21  H    0.045355  -0.003523  -0.004295
    22  O   -0.018989   0.000333   0.000815
    23  H    0.057903  -0.005380  -0.005814
    24  H    0.001095   0.000013  -0.000052
    25  O    7.982596   0.187269   0.256114
    26  H    0.187269   0.464123  -0.024469
    27  H    0.256114  -0.024469   0.612632
 Mulliken atomic charges:
              1
     1  O   -0.414487
     2  C    0.013055
     3  C   -0.192450
     4  H    0.275977
     5  H    0.062996
     6  H    0.061716
     7  H    0.065252
     8  H    0.060376
     9  H    0.052580
    10  O   -0.459082
    11  H    0.222101
    12  H    0.272639
    13  O   -0.436750
    14  H    0.155515
    15  H    0.269592
    16  O   -0.456304
    17  H    0.244629
    18  H    0.220267
    19  O   -0.418712
    20  H    0.160977
    21  H    0.246606
    22  O   -0.420792
    23  H    0.263009
    24  H    0.167331
    25  O   -0.466741
    26  H    0.287717
    27  H    0.162984
 Sum of Mulliken atomic charges =   0.00000
 Mulliken charges with hydrogens summed into heavy atoms:
              1
     1  O   -0.138510
     2  C    0.126011
     3  C   -0.002486
    10  O    0.035658
    13  O   -0.011643
    16  O    0.008591
    19  O   -0.011129
    22  O    0.009548
    25  O   -0.016040
 Sum of Mulliken charges with hydrogens summed into heavy atoms =   0.00000
 Electronic spatial extent (au):  <R**2>=           2042.0481
 Charge=              0.0000 electrons
 Dipole moment (field-independent basis, Debye):
    X=             -0.0526    Y=              0.8387    Z=             -0.3787  Tot=              0.9217
 Quadrupole moment (field-independent basis, Debye-Ang):
   XX=            -46.9354   YY=            -49.9791   ZZ=            -58.2871
   XY=              5.9533   XZ=             -0.0580   YZ=              1.8519
 Traceless Quadrupole moment (field-independent basis, Debye-Ang):
   XX=              4.7985   YY=              1.7547   ZZ=             -6.5532
   XY=              5.9533   XZ=             -0.0580   YZ=              1.8519
 Octapole moment (field-independent basis, Debye-Ang**2):
  XXX=             41.5915  YYY=             -4.6590  ZZZ=             -3.0147  XYY=             13.9074
  XXY=             12.5579  XXZ=              1.7263  XZZ=              9.1885  YZZ=              6.2912
  YYZ=             -4.3076  XYZ=             -8.8300
 Hexadecapole moment (field-independent basis, Debye-Ang**3):
 XXXX=          -1151.2781 YYYY=           -516.6132 ZZZZ=           -401.8945 XXXY=             42.7869
 XXXZ=             31.2159 YYYX=              9.3701 YYYZ=             24.6229 ZZZX=              8.1126
 ZZZY=             -9.7622 XXYY=           -306.4997 XXZZ=           -253.7854 YYZZ=           -159.1308
 XXYZ=            -14.4006 YYXZ=            -16.4220 ZZXY=             -0.9022
 N-N= 6.152095775751D+02 E-N=-2.661115933226D+03  KE= 5.991339639709D+02
 No NMR shielding tensors so no spin-rotation constants.
 Leave Link  601 at Wed Dec  4 09:57:50 2019, MaxMem=  805306368 cpu:       0.9
 (Enter /home/programs/G09_64/g09/l701.exe)
 Compute integral first derivatives.
 ... and contract with generalized density number  0.
 Leave Link  701 at Wed Dec  4 09:57:50 2019, MaxMem=  805306368 cpu:       0.9
 (Enter /home/programs/G09_64/g09/l702.exe)
 L702 exits ... SP integral derivatives will be done elsewhere.
 Leave Link  702 at Wed Dec  4 09:57:50 2019, MaxMem=  805306368 cpu:       0.2
 (Enter /home/programs/G09_64/g09/l703.exe)
 Compute integral first derivatives, UseDBF=F ICtDFT=           0.
 Integral derivatives from FoFDir, PRISM(SPDF).
 Calling FoFJK, ICntrl=      2127 FMM=F ISym2X=0 I1Cent= 0 IOpClX= 0 NMat=1 NMatS=1 NMatT=0.
 FoFCou: FMM=F IPFlag=           0 FMFlag=      100000 FMFlg1=         800
         NFxFlg=           0 DoJE=F BraDBF=F KetDBF=F FulRan=T
         Omega=  0.000000  0.000000  1.000000  0.000000  0.000000 ICntrl=    2127 IOpCl=  0
         NMat0=    1 NMatS0=    1 NMatT0=    0 NMatD0=    1 NMtDS0=    0 NMtDT0=    0
         I1Cent=           0 NGrid=           0.
 Symmetry not used in FoFCou.
 Leave Link  703 at Wed Dec  4 09:57:50 2019, MaxMem=  805306368 cpu:       1.6
 (Enter /home/programs/G09_64/g09/l716.exe)
 Dipole        =-2.06894575D-02 3.29954564D-01-1.48983545D-01
 ***** Axes restored to original set *****
 Cartesian Forces:  Max     0.052393688 RMS     0.008241085
 Leave Link  716 at Wed Dec  4 09:57:50 2019, MaxMem=  805306368 cpu:       0.2
 (Enter /home/programs/G09_64/g09/l120.exe)
 SvSCFP is copying densities from files   528 and   530 to   603.
 ONIOM: saving gridpoint  3
 ONIOM: restoring gridpoint 17
 ONIOM: generating point  2 -- high level on model system.
 Leave Link  120 at Wed Dec  4 09:57:50 2019, MaxMem=  805306368 cpu:       0.2
 (Enter /home/programs/G09_64/g09/l301.exe)
 Standard basis: 3-21G (6D, 7F)
 Ernie: Thresh=  0.10000D-02 Tol=  0.10000D-05 Strict=F.
 There are    39 symmetry adapted basis functions of A   symmetry.
 Integral buffers will be    131072 words long.
 Raffenetti 1 integral format.
 Two-electron integral symmetry is turned on.
    39 basis functions,    63 primitive gaussians,    39 cartesian basis functions
    13 alpha electrons       13 beta electrons
       nuclear repulsion energy        81.5490195855 Hartrees.
 IExCor=    0 DFT=F Ex=HF Corr=None ExCW=0 ScaHFX=  1.000000
 ScaDFX=  1.000000  1.000000  1.000000  1.000000 ScalE2=  1.000000  1.000000
 IRadAn=      0 IRanWt=     -1 IRanGd=            0 ICorTp=0
 NAtoms=   27 NActive=    9 NUniq=    9 SFac= 1.00D+00 NAtFMM=   50 NAOKFM=F Big=F
 Leave Link  301 at Wed Dec  4 09:57:50 2019, MaxMem=  805306368 cpu:       0.3
 (Enter /home/programs/G09_64/g09/l302.exe)
 NPDir=0 NMtPBC=     1 NCelOv=     1 NCel=       1 NClECP=     1 NCelD=      1
         NCelK=      1 NCelE2=     1 NClLst=     1 CellRange=     0.0.
 One-electron integrals computed using PRISM.
 NBasis=    39 RedAO= T  NBF=    39
 NBsUse=    39 1.00D-06 NBFU=    39
 Leave Link  302 at Wed Dec  4 09:57:50 2019, MaxMem=  805306368 cpu:       0.9
 (Enter /home/programs/G09_64/g09/l303.exe)
 DipDrv:  MaxL=1.
 Leave Link  303 at Wed Dec  4 09:57:51 2019, MaxMem=  805306368 cpu:       0.2
 (Enter /home/programs/G09_64/g09/l401.exe)
 Harris functional with IExCor=  205 diagonalized for initial guess.
 ExpMin= 1.83D-01 ExpMax= 3.22D+02 ExpMxC= 3.22D+02 IAcc=1 IRadAn=         1 AccDes= 0.00D+00
 HarFok:  IExCor=  205 AccDes= 0.00D+00 IRadAn=         1 IDoV= 1
 ScaDFX=  1.000000  1.000000  1.000000  1.000000
 FoFCou: FMM=F IPFlag=           0 FMFlag=      100000 FMFlg1=           0
         NFxFlg=           0 DoJE=T BraDBF=F KetDBF=T FulRan=T
         Omega=  0.000000  0.000000  1.000000  0.000000  0.000000 ICntrl=     500 IOpCl=  0
         NMat0=    1 NMatS0=    1 NMatT0=    0 NMatD0=    1 NMtDS0=    0 NMtDT0=    0
         I1Cent=           4 NGrid=           0.
 Petite list used in FoFCou.
 Harris En= -153.491060601219    
 Initial guess orbital symmetries:
       Occupied  (A) (A) (A) (A) (A) (A) (A) (A) (A) (A) (A) (A)
                 (A)
       Virtual   (A) (A) (A) (A) (A) (A) (A) (A) (A) (A) (A) (A)
                 (A) (A) (A) (A) (A) (A) (A) (A) (A) (A) (A) (A)
                 (A) (A)
 The electronic state of the initial guess is 1-A.
 Leave Link  401 at Wed Dec  4 09:57:51 2019, MaxMem=  805306368 cpu:       1.0
 (Enter /home/programs/G09_64/g09/l502.exe)
 Closed shell SCF:
 Requested convergence on RMS density matrix=1.00D-08 within 128 cycles.
 Requested convergence on MAX density matrix=1.00D-06.
 Requested convergence on             energy=1.00D-06.
 No special actions if energy rises.
 Using DIIS extrapolation, IDIIS=  1040.
 Integral symmetry usage will be decided dynamically.
 Keep R1 ints in memory in canonical form, NReq=1127973.
 IEnd=       23369 IEndB=       23369 NGot=   805306368 MDV=   804996582
 LenX=   804996582 LenY=   804994620
 Symmetry not used in FoFDir.
 MinBra= 0 MaxBra= 1 Meth= 1.
 IRaf=       0 NMat=   1 IRICut=       1 DoRegI=T DoRafI=F ISym2E= 0 JSym2E=0.

 Cycle   1  Pass 1  IDiag  1:
 E= -153.080324060564    
 DIIS: error= 4.88D-02 at cycle   1 NSaved=   1.
 NSaved= 1 IEnMin= 1 EnMin= -153.080324060564     IErMin= 1 ErrMin= 4.88D-02
 ErrMax= 4.88D-02 EMaxC= 1.00D-01 BMatC= 1.82D-01 BMatP= 1.82D-01
 IDIUse=3 WtCom= 5.12D-01 WtEn= 4.88D-01
 Coeff-Com:  0.100D+01
 Coeff-En:   0.100D+01
 Coeff:      0.100D+01
 Gap=     0.649 Goal=   None    Shift=    0.000
 GapD=    0.649 DampG=2.000 DampE=0.500 DampFc=1.0000 IDamp=-1.
 RMSDP=1.06D-02 MaxDP=8.77D-02              OVMax= 9.92D-02

 Cycle   2  Pass 1  IDiag  1:
 E= -153.197183039604     Delta-E=       -0.116858979041 Rises=F Damp=F
 DIIS: error= 1.79D-02 at cycle   2 NSaved=   2.
 NSaved= 2 IEnMin= 2 EnMin= -153.197183039604     IErMin= 2 ErrMin= 1.79D-02
 ErrMax= 1.79D-02 EMaxC= 1.00D-01 BMatC= 2.57D-02 BMatP= 1.82D-01
 IDIUse=3 WtCom= 8.21D-01 WtEn= 1.79D-01
 Coeff-Com:  0.235D+00 0.765D+00
 Coeff-En:   0.000D+00 0.100D+01
 Coeff:      0.193D+00 0.807D+00
 Gap=     0.688 Goal=   None    Shift=    0.000
 RMSDP=3.32D-03 MaxDP=2.15D-02 DE=-1.17D-01 OVMax= 2.46D-02

 Cycle   3  Pass 1  IDiag  1:
 E= -153.216004037147     Delta-E=       -0.018820997542 Rises=F Damp=F
 DIIS: error= 3.73D-03 at cycle   3 NSaved=   3.
 NSaved= 3 IEnMin= 3 EnMin= -153.216004037147     IErMin= 3 ErrMin= 3.73D-03
 ErrMax= 3.73D-03 EMaxC= 1.00D-01 BMatC= 6.19D-04 BMatP= 2.57D-02
 IDIUse=3 WtCom= 9.63D-01 WtEn= 3.73D-02
 Coeff-Com: -0.188D-01 0.877D-01 0.931D+00
 Coeff-En:   0.000D+00 0.000D+00 0.100D+01
 Coeff:     -0.181D-01 0.845D-01 0.934D+00
 Gap=     0.674 Goal=   None    Shift=    0.000
 RMSDP=5.15D-04 MaxDP=5.07D-03 DE=-1.88D-02 OVMax= 5.20D-03

 Cycle   4  Pass 1  IDiag  1:
 E= -153.216525532828     Delta-E=       -0.000521495682 Rises=F Damp=F
 DIIS: error= 1.21D-03 at cycle   4 NSaved=   4.
 NSaved= 4 IEnMin= 4 EnMin= -153.216525532828     IErMin= 4 ErrMin= 1.21D-03
 ErrMax= 1.21D-03 EMaxC= 1.00D-01 BMatC= 3.63D-05 BMatP= 6.19D-04
 IDIUse=3 WtCom= 9.88D-01 WtEn= 1.21D-02
 Coeff-Com: -0.772D-02 0.482D-02 0.235D+00 0.768D+00
 Coeff-En:   0.000D+00 0.000D+00 0.000D+00 0.100D+01
 Coeff:     -0.762D-02 0.477D-02 0.232D+00 0.771D+00
 Gap=     0.675 Goal=   None    Shift=    0.000
 RMSDP=1.39D-04 MaxDP=1.14D-03 DE=-5.21D-04 OVMax= 1.04D-03

 Cycle   5  Pass 1  IDiag  1:
 E= -153.216553953089     Delta-E=       -0.000028420261 Rises=F Damp=F
 DIIS: error= 2.15D-04 at cycle   5 NSaved=   5.
 NSaved= 5 IEnMin= 5 EnMin= -153.216553953089     IErMin= 5 ErrMin= 2.15D-04
 ErrMax= 2.15D-04 EMaxC= 1.00D-01 BMatC= 1.87D-06 BMatP= 3.63D-05
 IDIUse=3 WtCom= 9.98D-01 WtEn= 2.15D-03
 Coeff-Com:  0.288D-02-0.120D-01-0.123D+00-0.716D-01 0.120D+01
 Coeff-En:   0.000D+00 0.000D+00 0.000D+00 0.000D+00 0.100D+01
 Coeff:      0.288D-02-0.119D-01-0.123D+00-0.714D-01 0.120D+01
 Gap=     0.676 Goal=   None    Shift=    0.000
 RMSDP=6.93D-05 MaxDP=6.48D-04 DE=-2.84D-05 OVMax= 5.65D-04

 Cycle   6  Pass 1  IDiag  1:
 E= -153.216557183632     Delta-E=       -0.000003230542 Rises=F Damp=F
 DIIS: error= 3.54D-05 at cycle   6 NSaved=   6.
 NSaved= 6 IEnMin= 6 EnMin= -153.216557183632     IErMin= 6 ErrMin= 3.54D-05
 ErrMax= 3.54D-05 EMaxC= 1.00D-01 BMatC= 2.43D-08 BMatP= 1.87D-06
 IDIUse=1 WtCom= 1.00D+00 WtEn= 0.00D+00
 Coeff-Com: -0.581D-03 0.276D-02 0.269D-01-0.143D-02-0.284D+00 0.126D+01
 Coeff:     -0.581D-03 0.276D-02 0.269D-01-0.143D-02-0.284D+00 0.126D+01
 Gap=     0.676 Goal=   None    Shift=    0.000
 RMSDP=9.87D-06 MaxDP=6.72D-05 DE=-3.23D-06 OVMax= 9.34D-05

 Cycle   7  Pass 1  IDiag  1:
 E= -153.216557238156     Delta-E=       -0.000000054524 Rises=F Damp=F
 DIIS: error= 5.92D-06 at cycle   7 NSaved=   7.
 NSaved= 7 IEnMin= 7 EnMin= -153.216557238156     IErMin= 7 ErrMin= 5.92D-06
 ErrMax= 5.92D-06 EMaxC= 1.00D-01 BMatC= 1.74D-09 BMatP= 2.43D-08
 IDIUse=1 WtCom= 1.00D+00 WtEn= 0.00D+00
 Coeff-Com: -0.230D-03 0.103D-02 0.103D-01 0.302D-02-0.101D+00 0.166D+00
 Coeff-Com:  0.921D+00
 Coeff:     -0.230D-03 0.103D-02 0.103D-01 0.302D-02-0.101D+00 0.166D+00
 Coeff:      0.921D+00
 Gap=     0.676 Goal=   None    Shift=    0.000
 RMSDP=1.92D-06 MaxDP=1.27D-05 DE=-5.45D-08 OVMax= 2.43D-05

 Cycle   8  Pass 1  IDiag  1:
 E= -153.216557241493     Delta-E=       -0.000000003337 Rises=F Damp=F
 DIIS: error= 2.41D-06 at cycle   8 NSaved=   8.
 NSaved= 8 IEnMin= 8 EnMin= -153.216557241493     IErMin= 8 ErrMin= 2.41D-06
 ErrMax= 2.41D-06 EMaxC= 1.00D-01 BMatC= 1.47D-10 BMatP= 1.74D-09
 IDIUse=1 WtCom= 1.00D+00 WtEn= 0.00D+00
 Coeff-Com:  0.869D-04-0.410D-03-0.405D-02-0.434D-03 0.424D-01-0.146D+00
 Coeff-Com: -0.133D+00 0.124D+01
 Coeff:      0.869D-04-0.410D-03-0.405D-02-0.434D-03 0.424D-01-0.146D+00
 Coeff:     -0.133D+00 0.124D+01
 Gap=     0.676 Goal=   None    Shift=    0.000
 RMSDP=8.82D-07 MaxDP=6.89D-06 DE=-3.34D-09 OVMax= 1.22D-05

 Cycle   9  Pass 1  IDiag  1:
 E= -153.216557241912     Delta-E=       -0.000000000419 Rises=F Damp=F
 DIIS: error= 5.31D-07 at cycle   9 NSaved=   9.
 NSaved= 9 IEnMin= 9 EnMin= -153.216557241912     IErMin= 9 ErrMin= 5.31D-07
 ErrMax= 5.31D-07 EMaxC= 1.00D-01 BMatC= 6.26D-12 BMatP= 1.47D-10
 IDIUse=1 WtCom= 1.00D+00 WtEn= 0.00D+00
 Coeff-Com: -0.186D-04 0.888D-04 0.878D-03-0.105D-03-0.925D-02 0.407D-01
 Coeff-Com:  0.735D-02-0.414D+00 0.137D+01
 Coeff:     -0.186D-04 0.888D-04 0.878D-03-0.105D-03-0.925D-02 0.407D-01
 Coeff:      0.735D-02-0.414D+00 0.137D+01
 Gap=     0.676 Goal=   None    Shift=    0.000
 RMSDP=1.73D-07 MaxDP=1.86D-06 DE=-4.19D-10 OVMax= 2.75D-06

 Cycle  10  Pass 1  IDiag  1:
 E= -153.216557241931     Delta-E=       -0.000000000019 Rises=F Damp=F
 DIIS: error= 9.94D-08 at cycle  10 NSaved=  10.
 NSaved=10 IEnMin=10 EnMin= -153.216557241931     IErMin=10 ErrMin= 9.94D-08
 ErrMax= 9.94D-08 EMaxC= 1.00D-01 BMatC= 2.08D-13 BMatP= 6.26D-12
 IDIUse=1 WtCom= 1.00D+00 WtEn= 0.00D+00
 Coeff-Com:  0.352D-05-0.169D-04-0.164D-03 0.581D-04 0.169D-02-0.867D-02
 Coeff-Com:  0.210D-02 0.947D-01-0.478D+00 0.139D+01
 Coeff:      0.352D-05-0.169D-04-0.164D-03 0.581D-04 0.169D-02-0.867D-02
 Coeff:      0.210D-02 0.947D-01-0.478D+00 0.139D+01
 Gap=     0.676 Goal=   None    Shift=    0.000
 RMSDP=3.82D-08 MaxDP=3.70D-07 DE=-1.95D-11 OVMax= 5.13D-07

 Cycle  11  Pass 1  IDiag  1:
 E= -153.216557241932     Delta-E=       -0.000000000001 Rises=F Damp=F
 DIIS: error= 8.43D-09 at cycle  11 NSaved=  11.
 NSaved=11 IEnMin=11 EnMin= -153.216557241932     IErMin=11 ErrMin= 8.43D-09
 ErrMax= 8.43D-09 EMaxC= 1.00D-01 BMatC= 3.50D-15 BMatP= 2.08D-13
 IDIUse=1 WtCom= 1.00D+00 WtEn= 0.00D+00
 Coeff-Com: -0.649D-06 0.304D-05 0.301D-04-0.170D-04-0.307D-03 0.179D-02
 Coeff-Com: -0.916D-03-0.201D-01 0.118D+00-0.422D+00 0.132D+01
 Coeff:     -0.649D-06 0.304D-05 0.301D-04-0.170D-04-0.307D-03 0.179D-02
 Coeff:     -0.916D-03-0.201D-01 0.118D+00-0.422D+00 0.132D+01
 Gap=     0.676 Goal=   None    Shift=    0.000
 RMSDP=4.28D-09 MaxDP=2.58D-08 DE=-6.25D-13 OVMax= 4.08D-08

 SCF Done:  E(RHF) =  -153.216557242     A.U. after   11 cycles
             Convg  =    0.4281D-08             -V/T =  2.0027
 KE= 1.528041567192D+02 PE=-5.227462109827D+02 EE= 1.351764774361D+02
 Leave Link  502 at Wed Dec  4 09:57:51 2019, MaxMem=  805306368 cpu:       0.6
 (Enter /home/programs/G09_64/g09/l601.exe)
 Copying SCF densities to generalized density rwf, IOpCl= 0 IROHF=0.

 **********************************************************************

            Population analysis using the SCF density.

 **********************************************************************

 Orbital symmetries:
       Occupied  (A) (A) (A) (A) (A) (A) (A) (A) (A) (A) (A) (A)
                 (A)
       Virtual   (A) (A) (A) (A) (A) (A) (A) (A) (A) (A) (A) (A)
                 (A) (A) (A) (A) (A) (A) (A) (A) (A) (A) (A) (A)
                 (A) (A)
 The electronic state is 1-A.
 Alpha  occ. eigenvalues --  -20.42840 -11.21890 -11.15530  -1.32287  -1.01298
 Alpha  occ. eigenvalues --   -0.84620  -0.66556  -0.62613  -0.59306  -0.53412
 Alpha  occ. eigenvalues --   -0.52116  -0.45024  -0.41963
 Alpha virt. eigenvalues --    0.25606   0.29203   0.32772   0.33873   0.35055
 Alpha virt. eigenvalues --    0.37508   0.43609   0.45714   0.91182   0.95613
 Alpha virt. eigenvalues --    0.98033   1.02950   1.06303   1.10042   1.25103
 Alpha virt. eigenvalues --    1.30580   1.35445   1.36554   1.37726   1.42399
 Alpha virt. eigenvalues --    1.88416   1.94619   2.00236   2.22653   2.31171
 Alpha virt. eigenvalues --    3.35572
          Condensed to atoms (all electrons):
              1          2          3          4          5          6
     1  O    8.314518   0.234448  -0.053934   0.263631   0.002127  -0.000052
     2  C    0.234448   5.022777   0.222498  -0.040208  -0.036770  -0.044485
     3  C   -0.053934   0.222498   5.478389  -0.001821   0.344088   0.374457
     4  H    0.263631  -0.040208  -0.001821   0.399475   0.000035   0.003001
     5  H    0.002127  -0.036770   0.344088   0.000035   0.540253  -0.024004
     6  H   -0.000052  -0.044485   0.374457   0.003001  -0.024004   0.526586
     7  H    0.001984  -0.042724   0.373198  -0.000282  -0.022558  -0.027424
     8  H   -0.025283   0.378931  -0.051216   0.003529   0.000771   0.003386
     9  H   -0.035726   0.362784  -0.060335  -0.002089   0.001887  -0.003771
              7          8          9
     1  O    0.001984  -0.025283  -0.035726
     2  C   -0.042724   0.378931   0.362784
     3  C    0.373198  -0.051216  -0.060335
     4  H   -0.000282   0.003529  -0.002089
     5  H   -0.022558   0.000771   0.001887
     6  H   -0.027424   0.003386  -0.003771
     7  H    0.496946  -0.003752   0.003897
     8  H   -0.003752   0.513835  -0.040150
     9  H    0.003897  -0.040150   0.591087
 Mulliken atomic charges:
              1
     1  O   -0.701713
     2  C   -0.057250
     3  C   -0.625325
     4  H    0.374729
     5  H    0.194171
     6  H    0.192305
     7  H    0.220716
     8  H    0.219949
     9  H    0.182418
    10  O    0.000000
    11  H    0.000000
    12  H    0.000000
    13  O    0.000000
    14  H    0.000000
    15  H    0.000000
    16  O    0.000000
    17  H    0.000000
    18  H    0.000000
    19  O    0.000000
    20  H    0.000000
    21  H    0.000000
    22  O    0.000000
    23  H    0.000000
    24  H    0.000000
    25  O    0.000000
    26  H    0.000000
    27  H    0.000000
 Sum of Mulliken atomic charges =   0.00000
 Mulliken charges with hydrogens summed into heavy atoms:
              1
     1  O   -0.326984
     2  C    0.345117
     3  C   -0.018133
    10  O    0.000000
    13  O    0.000000
    16  O    0.000000
    19  O    0.000000
    22  O    0.000000
    25  O    0.000000
 Sum of Mulliken charges with hydrogens summed into heavy atoms =   0.00000
 Electronic spatial extent (au):  <R**2>=            728.0357
 Charge=              0.0000 electrons
 Dipole moment (field-independent basis, Debye):
    X=             -1.5041    Y=              1.1350    Z=             -0.0923  Tot=              1.8865
 Quadrupole moment (field-independent basis, Debye-Ang):
   XX=            -15.2254   YY=            -17.4015   ZZ=            -20.1872
   XY=              0.2913   XZ=              0.9858   YZ=             -0.2487
 Traceless Quadrupole moment (field-independent basis, Debye-Ang):
   XX=              2.3793   YY=              0.2032   ZZ=             -2.5825
   XY=              0.2913   XZ=              0.9858   YZ=             -0.2487
 Octapole moment (field-independent basis, Debye-Ang**2):
  XXX=            138.4179  YYY=             14.6984  ZZZ=              1.0262  XYY=             45.8622
  XXY=              0.5555  XXZ=             -3.4932  XZZ=             50.1565  YZZ=              4.5625
  YYZ=             -0.5779  XYZ=             -0.1158
 Hexadecapole moment (field-independent basis, Debye-Ang**3):
 XXXX=           -851.9116 YYYY=            -44.0141 ZZZZ=            -64.4739 XXXY=            -20.5967
 XXXZ=             31.4066 YYYX=            -36.8523 YYYZ=             -5.2164 ZZZX=             19.1136
 ZZZY=             -7.1439 XXYY=           -146.9942 XXZZ=           -158.9591 YYZZ=            -19.4435
 XXYZ=             -0.9688 YYXZ=              7.6666 ZZXY=            -11.8643
 N-N= 8.154901958549D+01 E-N=-5.227462110044D+02  KE= 1.528041567192D+02
 No NMR shielding tensors so no spin-rotation constants.
 Leave Link  601 at Wed Dec  4 09:57:51 2019, MaxMem=  805306368 cpu:       0.8
 (Enter /home/programs/G09_64/g09/l701.exe)
 Compute integral first derivatives.
 ... and contract with generalized density number  0.
 Leave Link  701 at Wed Dec  4 09:57:51 2019, MaxMem=  805306368 cpu:       0.8
 (Enter /home/programs/G09_64/g09/l702.exe)
 L702 exits ... SP integral derivatives will be done elsewhere.
 Leave Link  702 at Wed Dec  4 09:57:51 2019, MaxMem=  805306368 cpu:       0.2
 (Enter /home/programs/G09_64/g09/l703.exe)
 Compute integral first derivatives, UseDBF=F ICtDFT=           0.
 Integral derivatives from FoFDir, PRISM(SPDF).
 Calling FoFJK, ICntrl=      2127 FMM=F ISym2X=0 I1Cent= 0 IOpClX= 0 NMat=1 NMatS=1 NMatT=0.
 FoFCou: FMM=F IPFlag=           0 FMFlag=      100000 FMFlg1=         800
         NFxFlg=           0 DoJE=F BraDBF=F KetDBF=F FulRan=T
         Omega=  0.000000  0.000000  1.000000  0.000000  0.000000 ICntrl=    2127 IOpCl=  0
         NMat0=    1 NMatS0=    1 NMatT0=    0 NMatD0=    1 NMtDS0=    0 NMtDT0=    0
         I1Cent=           0 NGrid=           0.
 Symmetry not used in FoFCou.
 Leave Link  703 at Wed Dec  4 09:57:51 2019, MaxMem=  805306368 cpu:       0.6
 (Enter /home/programs/G09_64/g09/l716.exe)
 Dipole        =-5.91751373D-01 4.46536929D-01-3.63049256D-02
 ***** Axes restored to original set *****
 Cartesian Forces:  Max     0.039634680 RMS     0.007293240
 Leave Link  716 at Wed Dec  4 09:57:51 2019, MaxMem=  805306368 cpu:       0.2
 (Enter /home/programs/G09_64/g09/l120.exe)
 SvSCFP is copying densities from files   528 and   530 to   603.
 ONIOM: saving gridpoint  2
 ONIOM: restoring gridpoint 17
 ONIOM: generating point  1 -- low level on model system.
 Leave Link  120 at Wed Dec  4 09:57:51 2019, MaxMem=  805306368 cpu:       0.3
 (Enter /home/programs/G09_64/g09/l301.exe)
 Standard basis: STO-3G (5D, 7F)
 Ernie: Thresh=  0.10000D-02 Tol=  0.10000D-05 Strict=F.
 There are    21 symmetry adapted basis functions of A   symmetry.
 Integral buffers will be    131072 words long.
 Raffenetti 1 integral format.
 Two-electron integral symmetry is turned on.
    21 basis functions,    63 primitive gaussians,    21 cartesian basis functions
    13 alpha electrons       13 beta electrons
       nuclear repulsion energy        81.5490195855 Hartrees.
 IExCor=    0 DFT=F Ex=HF Corr=None ExCW=0 ScaHFX=  1.000000
 ScaDFX=  1.000000  1.000000  1.000000  1.000000 ScalE2=  1.000000  1.000000
 IRadAn=      0 IRanWt=     -1 IRanGd=            0 ICorTp=0
 NAtoms=   27 NActive=    9 NUniq=    9 SFac= 1.00D+00 NAtFMM=   50 NAOKFM=F Big=F
 Leave Link  301 at Wed Dec  4 09:57:51 2019, MaxMem=  805306368 cpu:       0.3
 (Enter /home/programs/G09_64/g09/l302.exe)
 NPDir=0 NMtPBC=     1 NCelOv=     1 NCel=       1 NClECP=     1 NCelD=      1
         NCelK=      1 NCelE2=     1 NClLst=     1 CellRange=     0.0.
 One-electron integrals computed using PRISM.
 NBasis=    21 RedAO= T  NBF=    21
 NBsUse=    21 1.00D-06 NBFU=    21
 Leave Link  302 at Wed Dec  4 09:57:51 2019, MaxMem=  805306368 cpu:       0.9
 (Enter /home/programs/G09_64/g09/l303.exe)
 DipDrv:  MaxL=1.
 Leave Link  303 at Wed Dec  4 09:57:51 2019, MaxMem=  805306368 cpu:       0.2
 (Enter /home/programs/G09_64/g09/l401.exe)
 Harris functional with IExCor=  205 diagonalized for initial guess.
 ExpMin= 1.69D-01 ExpMax= 1.31D+02 ExpMxC= 1.31D+02 IAcc=1 IRadAn=         1 AccDes= 0.00D+00
 HarFok:  IExCor=  205 AccDes= 0.00D+00 IRadAn=         1 IDoV= 1
 ScaDFX=  1.000000  1.000000  1.000000  1.000000
 FoFCou: FMM=F IPFlag=           0 FMFlag=      100000 FMFlg1=           0
         NFxFlg=           0 DoJE=T BraDBF=F KetDBF=T FulRan=T
         Omega=  0.000000  0.000000  1.000000  0.000000  0.000000 ICntrl=     500 IOpCl=  0
         NMat0=    1 NMatS0=    1 NMatT0=    0 NMatD0=    1 NMtDS0=    0 NMtDT0=    0
         I1Cent=           4 NGrid=           0.
 Petite list used in FoFCou.
 Harris En= -152.340610957132    
 Initial guess orbital symmetries:
       Occupied  (A) (A) (A) (A) (A) (A) (A) (A) (A) (A) (A) (A)
                 (A)
       Virtual   (A) (A) (A) (A) (A) (A) (A) (A)
 The electronic state of the initial guess is 1-A.
 Leave Link  401 at Wed Dec  4 09:57:51 2019, MaxMem=  805306368 cpu:       1.0
 (Enter /home/programs/G09_64/g09/l502.exe)
 Closed shell SCF:
 Requested convergence on RMS density matrix=1.00D-08 within 128 cycles.
 Requested convergence on MAX density matrix=1.00D-06.
 Requested convergence on             energy=1.00D-06.
 No special actions if energy rises.
 Using DIIS extrapolation, IDIIS=  1040.
 Integral symmetry usage will be decided dynamically.
 Keep R1 ints in memory in canonical form, NReq=846660.
 IEnd=       19850 IEndB=       19850 NGot=   805306368 MDV=   805276797
 LenX=   805276797 LenY=   805275915
 Symmetry not used in FoFDir.
 MinBra= 0 MaxBra= 1 Meth= 1.
 IRaf=       0 NMat=   1 IRICut=       1 DoRegI=T DoRafI=F ISym2E= 0 JSym2E=0.

 Cycle   1  Pass 1  IDiag  1:
 E= -152.036245160331    
 DIIS: error= 4.22D-02 at cycle   1 NSaved=   1.
 NSaved= 1 IEnMin= 1 EnMin= -152.036245160331     IErMin= 1 ErrMin= 4.22D-02
[...]
 .00001841,0.00011092,0.00043727,-0.00008393,0.00001002,0.00000663,0.00
 022749,-0.00054136,-0.00063243,0.00204374,-0.00084868,0.00024257,0.001
 40978,0.00396611,-0.00036446,0.00041565,0.00006643,-0.00013727,-0.3051
 3513,-0.37141761,0.02231903,0.32239219,0.38408039,-0.00036052,-0.00035
 022,0.00024405,0.00019741,-0.00000521,0.00003448,-0.00005143,-0.000002
 98,0.00000264,0.00000904,0.00012224,-0.00008986,-0.00001310,-0.0000130
 1,-0.00001733,0.00000418,0.00000618,-0.00000370,0.00001311,-0.00000389
 ,0.00001673,-0.00001170,-0.00000778,-0.00000848,-0.00005520,-0.0000163
 2,-0.00000506,0.00005652,-0.00029278,0.00017154,0.00010134,0.00008501,
 -0.00005835,0.00023234,0.00007342,-0.00025290,-0.00000354,0.00031210,0
 .00041211,-0.00021340,0.00003174,0.00003059,0.00016189,-0.00085749,-0.
 00062791,-0.00163016,0.00119880,0.00015375,0.00481545,-0.00466642,0.00
 060297,0.00058072,0.00059023,-0.00030874,-0.07967597,-0.05010763,-0.06
 961077,0.03002745,0.00283945,0.06500505,0.00100146,-0.00027345,0.00066
 586,-0.00043244,-0.00002895,-0.00015015,0.00015670,0.00001237,-0.00003
 107,-0.00131613,-0.00004388,-0.00006528,0.00002181,0.00003012,0.000074
 42,-0.00000868,-0.00001551,0.00000814,-0.00000431,0.00001590,-0.000006
 90,0.00010142,0.00003690,0.00002059,0.00013394,0.00002501,0.00004496,0
 .00195836,-0.00121184,-0.00160240,-0.00089517,-0.00025765,0.00016815,-
 0.00043388,0.00181242,-0.00007766,-0.00014432,-0.00108579,0.00068391,0
 .00029616,-0.00005365,0.00002226,-0.00038530,0.00048234,-0.00075017,-0
 .00250562,0.00003133,0.00280966,0.00855133,0.00155240,-0.00964434,-0.0
 0109012,0.00052556,-0.00095066,-0.07157937,-0.01074410,-0.04835535,-0.
 00137102,-0.02256875,0.04625597,0.09399577,0.00077424,-0.00248044,0.00
 230709,-0.00028683,-0.00026175,-0.00014727,0.00007775,0.00002029,-0.00
 002246,-0.00369872,0.00253554,-0.00055663,0.00000840,-0.00000488,0.000
 04970,-0.00002471,-0.00003291,-0.00000943,0.00002499,0.00003287,0.0000
 4487,0.00019554,0.00001744,-0.00000774,-0.00001923,-0.00002829,0.00006
 523,0.00873544,-0.00761544,-0.00151724,-0.00059562,-0.00007259,-0.0007
 6939,0.00070514,0.00432507,-0.00296374,-0.00036642,-0.00180808,0.00344
 867,-0.00038319,0.00019849,0.00010817,0.00105295,-0.00240053,-0.003103
 50,-0.00565711,0.00184629,0.00113815,0.01398142,-0.00396480,0.00471503
 ,0.00139918,0.00263972,-0.00139833,-0.04386471,-0.12022476,0.12296907,
 0.00362882,-0.01616016,0.04964674,0.03119074,0.15687065,-0.00118191,0.
 00197475,-0.00505173,0.00050424,0.00022739,0.00036595,-0.00013311,-0.0
 0003532,0.00002006,0.00312857,-0.00233289,0.00149592,0.00001186,-0.000
 01056,-0.00010964,0.00000111,0.00000716,-0.00000318,-0.00006973,-0.000
 03372,-0.00008452,-0.00017979,-0.00003566,0.00000276,0.00001268,0.0000
 4410,-0.00012126,-0.01796875,0.01289782,0.00444965,0.00197102,0.001416
 66,0.00222311,0.00028635,-0.00840320,0.00454729,0.00027828,0.00360773,
 -0.00623392,-0.00015599,-0.00002485,-0.00023677,-0.00052869,0.00387178
 ,0.00641307,0.00935101,-0.00447889,-0.00443797,-0.02150638,0.00573313,
 -0.00197897,-0.00185417,-0.00298483,0.00261105,0.01546543,0.19509330,-
 0.46256750,-0.01488109,-0.02598081,0.01096954,0.01244274,-0.16637327,0
 .45622096,-0.04771051,0.05185924,-0.00106046,0.01347298,0.01211873,0.0
 0263677,-0.00165027,-0.00019782,0.00071053,-0.00441652,-0.00783488,-0.
 01215750,-0.00013523,-0.00041073,-0.00095996,-0.00003390,0.00015594,-0
 .00026511,-0.00001037,-0.00020396,0.00000201,-0.00491119,-0.00131881,-
 0.00051099,-0.00150249,-0.00064637,-0.00041210,0.01209674,-0.00498782,
 -0.00160907,-0.00529886,-0.00467350,-0.00736016,-0.00037973,0.00142779
 ,-0.00087608,0.00050571,-0.00012116,0.00152954,0.00014488,-0.00040133,
 0.00003298,-0.00057920,-0.00155292,-0.00191626,0.00367604,0.00236770,0
 .00008370,-0.00459311,0.00160281,-0.00063599,-0.00528567,-0.00662556,0
 .00477931,0.00306523,-0.00278686,0.00280474,-0.00003222,0.00005069,0.0
 0008117,0.00116221,0.00470870,-0.00758343,0.50810399,0.04981990,-0.023
 91053,0.00316939,-0.00891961,-0.01193805,-0.00252142,0.00154366,-0.000
 10386,-0.00077768,-0.02135272,-0.02353528,0.00015184,0.00003059,0.0005
 5263,0.00091813,0.00019103,0.00005887,0.00048631,-0.00003182,0.0002249
 5,0.00000926,0.00429210,0.00147724,0.00057365,0.00153183,0.00042523,0.
 00031560,0.00137926,-0.00257572,-0.00222205,0.00195992,0.00227912,0.00
 464456,-0.00003067,0.00254193,-0.00069487,-0.00047806,-0.00201650,0.00
 014986,0.00028890,0.00018042,0.00007669,0.00019976,0.00153832,0.000981
 14,-0.00152819,-0.00173224,0.00085568,0.00177583,-0.00044756,-0.000553
 76,0.00267554,0.00443603,-0.00384282,-0.00195137,0.00068720,0.00154444
 ,0.00010370,-0.00027305,-0.00020391,0.00170550,0.00116036,-0.00395653,
 0.13483637,0.33729966,-0.00596487,0.00572665,0.01449480,0.00288155,0.0
 0192525,0.00073091,-0.00037043,-0.00020240,0.00011688,0.01046724,-0.01
 132888,-0.03842459,-0.00014436,-0.00001252,-0.00018025,0.00009786,0.00
 017830,0.00003243,0.00005341,-0.00004735,0.00009507,-0.00102240,-0.000
 18741,-0.00010353,-0.00056386,-0.00010045,-0.00010673,0.00494000,-0.00
 283148,-0.00049093,-0.00147400,-0.00111101,-0.00236354,-0.00010755,0.0
 0130360,-0.00090017,0.00015261,-0.00037558,0.00125843,0.00005490,-0.00
 011610,0.00002978,-0.00013976,-0.00107900,-0.00141895,0.00093343,0.001
 20882,0.00076845,-0.00161830,0.00001396,-0.00017777,-0.00077900,-0.002
 16024,0.00086260,0.00104032,-0.00090024,0.00149786,0.00028911,0.000322
 33,0.00008326,-0.00000048,0.00152839,-0.00454728,-0.09892464,0.2741281
 3,0.69211474,0.00714709,-0.00792432,-0.00060442,-0.00185362,-0.0018697
 4,-0.00044515,0.00045282,0.00003304,-0.00016163,-0.02716181,0.00619055
 ,-0.00589490,0.00008968,0.00006387,0.00020511,-0.00010660,-0.00010781,
 -0.00000032,-0.00003007,0.00007488,-0.00001485,0.00100533,0.00017859,0
 .00011018,0.00033620,0.00009636,0.00012572,-0.01542956,0.00744730,0.00
 384784,0.00126371,0.00381567,0.00325351,0.00020549,-0.00255692,0.00133
 189,-0.00020368,0.00095031,-0.00156501,-0.00024753,0.00021096,-0.00008
 178,0.00032120,0.00097606,0.00149540,-0.00183772,-0.00126949,-0.000914
 81,0.00349503,-0.00046813,0.00059117,0.00117090,0.00256170,-0.00115918
 ,-0.00201243,0.00264515,-0.00460069,-0.00041498,-0.00032019,-0.0001206
 3,-0.00171938,-0.00798143,0.01338684,-0.26170154,-0.18946891,-0.129071
 00,0.27953638,0.00669079,-0.01254885,-0.00294469,-0.00172446,-0.001942
 96,-0.00021163,0.00010091,0.00008978,-0.00009568,-0.01581890,0.0270279
 3,0.00517560,0.00009444,-0.00005075,0.00005858,-0.00014996,-0.00015670
 ,-0.00010561,-0.00000634,0.00003934,-0.00000694,0.00095960,0.00003188,
 0.00004806,0.00001728,0.00008382,0.00008597,-0.01801142,0.01119558,0.0
 0562914,0.00411777,0.00299073,0.00313152,0.00034293,-0.00556976,0.0022
 9730,0.00002122,0.00294266,-0.00258966,-0.00053312,0.00023698,-0.00016
 180,0.00039313,0.00036970,0.00169557,-0.00218709,-0.00101908,-0.001720
 24,0.00329050,-0.00082747,0.00144631,0.00202074,0.00250643,-0.00048750
 ,-0.00086910,0.00252739,-0.00649797,-0.00043518,0.00005732,0.00000722,
 -0.00478704,-0.00959024,0.01748330,-0.14762978,-0.20554556,-0.13392542
 ,0.14910221,0.21118295,0.00651301,-0.00785838,-0.00278640,-0.00173031,
 -0.00171913,-0.00012518,0.00032466,0.00006683,-0.00015023,-0.02100307,
 0.01441797,0.00155075,0.00010235,0.00002672,0.00013418,-0.00011475,-0.
 00012162,-0.00004119,-0.00004865,0.00004317,-0.00005692,0.00089132,0.0
 0013041,0.00006864,0.00029358,0.00011944,0.00006848,-0.01072268,0.0074
 4059,0.00213343,0.00244755,0.00185112,0.00328214,0.00005001,-0.0036360
 2,0.00203382,-0.00006544,0.00169927,-0.00249876,-0.00021548,0.00014020
 ,-0.00009636,0.00015104,0.00136645,0.00221020,-0.00093221,-0.00160843,
 -0.00153992,0.00148402,0.00032519,0.00045438,0.00060631,0.00188861,-0.
 00044966,-0.00040418,0.00087848,-0.00358803,-0.00075258,-0.00063668,-0
 .00014238,0.00038941,-0.00064190,0.01116693,-0.04722608,-0.09678579,-0
 .14109626,0.09399795,0.11113628,0.18248225,-0.00332541,0.00306141,-0.0
 0347975,0.00088202,0.00102950,0.00072111,-0.00006514,0.00013300,0.0000
 7497,0.00625220,-0.00736456,0.01538851,0.00008724,-0.00011740,-0.00013
 143,-0.00017867,-0.00011132,-0.00005801,-0.00005602,0.00000481,-0.0000
 9608,-0.00039461,-0.00015124,-0.00012309,-0.00007613,-0.00004535,-0.00
 010170,0.00044859,0.00017750,-0.00023091,-0.00010685,-0.00055013,-0.00
 022247,0.00002335,-0.00037281,0.00024707,0.00001634,0.00017854,-0.0003
 2659,-0.00001325,-0.00001054,-0.00000210,-0.00001178,0.00018919,0.0003
 3310,0.00002574,-0.00016086,-0.00049147,0.00027137,0.00014552,0.000131
 05,-0.00039674,-0.00013980,0.00058943,-0.00028814,0.00017746,-0.000027
 95,-0.00003625,-0.00005823,-0.00001959,0.00016409,-0.00028157,-0.00009
 228,-0.17174409,0.05698363,0.24730247,0.02006815,-0.00953941,-0.042565
 09,0.15352144,0.00040239,-0.00072296,0.00212262,0.00029411,-0.00013204
 ,0.00001159,-0.00010627,0.00002136,0.00002023,0.00182792,-0.00102337,-
 0.00883957,-0.00004938,-0.00003190,-0.00002409,0.00000063,0.00005432,-
 0.00001506,0.00005583,-0.00002891,0.00003999,-0.00003122,-0.00001312,-
 0.00002080,-0.00013440,-0.00001718,0.00001481,-0.00018104,-0.00003121,
 0.00035329,0.00006618,0.00005763,-0.00024795,0.00003973,0.00002015,-0.
 00020832,0.00004900,0.00018158,0.00041320,-0.00006188,0.00000223,-0.00
 000043,0.00003552,-0.00061764,-0.00067253,-0.00020875,0.00058002,0.000
 44328,0.00011662,-0.00054485,0.00008620,0.00048499,-0.00019732,-0.0002
 0471,-0.00000563,0.00038334,-0.00003954,0.00031218,0.00041476,0.000173
 73,-0.00054954,-0.00066849,-0.00089682,0.01421180,-0.05234711,-0.10101
 253,0.02346237,-0.00347807,-0.03519854,-0.03806764,0.06012366,-0.00226
 383,0.00194850,0.00051699,-0.00035324,0.00017050,-0.00022829,0.0000523
 0,-0.00001373,0.00000668,-0.00029018,0.00071185,0.00213604,0.00000625,
 0.00001418,0.00003353,0.00000491,-0.00001781,-0.00000720,0.00000178,0.
 00001442,0.00002036,-0.00000770,-0.00001193,0.00003169,0.00001849,-0.0
 0000097,0.00004345,-0.00036319,-0.00037989,0.00022626,-0.00017294,0.00
 045917,-0.00002757,0.00000821,0.00052697,-0.00028652,-0.00005786,-0.00
 035822,0.00029750,0.00002148,0.00002192,0.00001011,0.00004027,-0.00002
 777,-0.00015803,-0.00019821,0.00002024,0.00018218,0.00041312,-0.000156
 29,-0.00000670,0.00016972,0.00023419,-0.00023383,-0.00043043,0.0003293
 2,0.00016619,0.00010387,0.00004662,-0.00002178,0.00013323,-0.00035614,
 -0.00055656,0.18667282,-0.15578032,-0.52165401,0.03299135,0.00958799,-
 0.02090917,-0.21540172,0.14249281,0.53852582,-0.00452607,0.00046307,-0
 .00775780,0.00217165,0.00054925,0.00055203,-0.00051201,-0.00010597,0.0
 0004323,0.00607220,-0.00486595,0.00146490,-0.00005076,-0.00007747,-0.0
 0025798,0.00003167,0.00004810,-0.00003163,-0.00002982,-0.00005951,-0.0
 0003079,-0.00035007,-0.00010666,-0.00002312,-0.00025932,-0.00002768,-0
 .00016307,-0.08148221,0.06998401,0.03127358,0.00678494,0.00694164,0.00
 755489,-0.00563280,-0.02160643,0.01268511,0.00156450,0.01092488,-0.010
 07309,-0.00020049,-0.00033595,-0.00045946,-0.00108942,0.00246143,0.005
 38642,0.00383202,-0.00223028,-0.00401974,-0.00975871,0.00242522,-0.000
 12704,-0.00123104,-0.00193230,0.00229399,0.01562768,-0.00883316,0.0130
 9478,0.00096925,0.00180200,-0.00047112,-0.02727271,0.00915784,-0.01950
 213,-0.01384493,-0.02965023,-0.02007156,-0.03117327,0.00236447,0.00382
 209,-0.00394805,-0.00232355,-0.00208579,0.65041009,-0.00408236,0.01287
 511,0.00542962,0.00112259,0.00172782,0.00023595,-0.00005778,-0.0000430
 2,0.00011699,0.02220031,-0.01940690,0.00030292,-0.00009490,0.00006382,
 -0.00003748,0.00016773,0.00017306,0.00014524,0.00000636,-0.00004149,-0
 .00001046,-0.00101651,-0.00001629,-0.00007749,-0.00001650,-0.00006707,
 -0.00010835,0.07501502,-0.02477131,-0.02209281,-0.00360413,-0.01029412
 ,-0.00827132,-0.00041861,0.01547228,-0.00701302,-0.00031802,-0.0067619
 9,0.00581930,0.00097368,-0.00029144,0.00039548,-0.00047235,-0.00115003
 ,-0.00340450,0.00357982,0.00188798,0.00277977,-0.00713366,0.00117750,-
 0.00180188,-0.00200816,-0.00367950,0.00077239,-0.00134926,-0.00202100,
 0.02446882,0.00248645,0.00086290,0.00029539,0.00138453,-0.01817492,-0.
 00685174,-0.05152704,-0.02468048,-0.03492855,0.02457234,-0.01100807,0.
 02821878,-0.00496715,-0.00219497,0.00014790,-0.18780595,0.24049709,-0.
 00064995,0.00402603,0.00874962,-0.00022090,0.00058743,-0.00041329,0.00
 012677,0.00001554,0.00005418,0.00763270,-0.00646344,-0.00179523,-0.000
 05271,0.00004460,0.00010976,0.00007417,0.00006658,0.00006803,0.0000795
 7,0.00002520,0.00009489,-0.00028947,0.00001883,-0.00003576,-0.00003441
 ,-0.00008858,0.00009269,0.05761285,-0.04007868,0.00743499,-0.00318759,
 -0.00698682,-0.00811893,0.00326711,0.01806060,-0.01105557,-0.00088028,
 -0.00895338,0.01067326,0.00035875,0.00007943,0.00044069,0.00076670,-0.
 00456875,-0.00801701,-0.00546724,0.00432939,0.00588736,0.01583174,-0.0
 0468424,0.00027913,0.00104414,0.00145481,-0.00223682,-0.00013370,0.030
 05875,-0.04344693,-0.00160137,0.00090326,-0.00556758,0.00269476,-0.003
 13660,-0.00973443,-0.02396711,-0.02192357,-0.00399556,-0.00143574,-0.0
 0307639,-0.02370992,-0.00149431,0.00109880,0.00213995,0.23320903,0.010
 26274,0.55741498,0.00392096,0.01092872,0.01890848,-0.00233429,0.001017
 19,-0.00051937,0.00082889,0.00012592,0.00004031,0.01247420,-0.01061964
 ,-0.00229156,-0.00000943,0.00018513,0.00039323,0.00010223,0.00007934,0
 .00017487,0.00006145,0.00006113,0.00005558,-0.00041294,0.00013169,-0.0
 0003266,0.00037161,-0.00003426,0.00017408,-0.04569909,-0.03543835,-0.0
 0948061,-0.02878004,-0.00646135,-0.00871816,0.01183293,0.04885528,-0.0
 2571194,-0.00285379,-0.02711416,0.02391731,0.00097481,0.00023171,0.001
 30615,0.00180328,-0.00544772,-0.01237511,-0.00343487,0.00546576,0.0088
 9331,0.01032919,-0.00328627,-0.00012493,0.00066859,0.00019467,-0.00325
 743,-0.00677636,0.00835647,-0.01176148,0.00000744,-0.00036212,-0.00020
 434,-0.00292789,-0.01479954,0.03318746,-0.01910362,-0.00431323,-0.0086
 6023,0.03138011,0.02729843,0.01689125,-0.00091114,0.00011725,0.0008579
 8,-0.15307431,0.04279199,-0.01135671,0.20007220,-0.00172623,-0.0091379
 5,-0.01177383,0.00116123,-0.00068519,0.00012639,-0.00037950,-0.0000938
 2,-0.00004826,-0.01028769,0.00691495,-0.00045237,0.00002091,-0.0000922
 2,-0.00017405,-0.00007773,-0.00007697,-0.00012295,-0.00003172,-0.00001
 469,-0.00000808,0.00044549,-0.00006137,0.00006689,-0.00017025,0.000017
 80,-0.00004159,-0.01776181,-0.05337579,0.00195005,-0.00780411,0.022597
 80,0.01419776,0.01688345,-0.03187466,0.00544313,0.00042681,0.01298282,
 -0.01160171,-0.00120278,0.00026546,-0.00086129,-0.00037778,0.00321389,
 0.00782742,0.00125999,-0.00368140,-0.00584956,-0.00511766,0.00205458,0
 .00071408,0.00012302,0.00091674,0.00150062,0.00419500,-0.00627623,0.00
 690187,-0.00059839,0.00006781,0.00062953,-0.00172322,0.01347270,-0.017
 98362,0.01130251,0.00259816,0.00596339,-0.00876676,-0.02432865,-0.0181
 4368,0.00038629,0.00017069,0.00047380,0.07372710,-0.09803870,-0.016090
 31,-0.04605177,0.15937428,-0.00015900,-0.00433728,-0.00794712,0.000556
 86,-0.00022066,0.00026618,-0.00006535,-0.00003670,-0.00007669,-0.00564
 482,0.00258024,0.00034302,0.00003156,-0.00002378,-0.00005692,-0.000047
 68,-0.00004515,-0.00005491,-0.00004598,-0.00001512,-0.00005265,0.00025
 215,-0.00000377,0.00005111,0.00007239,0.00006860,-0.00003058,0.0139849
 7,-0.00316328,-0.05527942,-0.01357513,0.01443682,0.01157953,-0.0129514
 6,-0.01390601,0.01270546,0.00115809,0.00990203,-0.01036112,0.00002204,
 -0.00022829,-0.00040147,-0.00107525,0.00371574,0.00505631,0.00159718,-
 0.00279482,-0.00272055,-0.00318604,0.00134290,-0.00111452,-0.00117775,
 -0.00025218,0.00045364,0.00108934,-0.00147195,0.00406723,-0.00000793,-
 0.00018586,-0.00016141,0.00550975,0.00014170,-0.01078390,0.00600071,0.
 00267128,0.00251070,-0.00554194,-0.01244309,-0.00656088,0.00036770,-0.
 00028734,-0.00008190,0.07553119,-0.06190832,-0.12444105,-0.02364347,0.
 03934398,0.16654387,-0.00058145,-0.00004782,-0.00008028,0.00021952,0.0
 0003886,-0.00002271,-0.00009775,-0.00001251,0.00002370,0.00079856,0.00
 005866,0.00001300,-0.00001341,-0.00001611,-0.00003567,0.00000668,0.000
 00905,-0.00000788,0.00001008,-0.00000549,0.00001469,-0.00005429,-0.000
 02384,-0.00000817,-0.00008036,-0.00002058,-0.00001018,-0.00327780,0.00
 314279,0.00564794,0.00126534,0.00027952,-0.00014880,0.00004560,-0.0012
 8470,0.00010346,0.00008534,0.00057175,-0.00011359,-0.00009614,0.000017
 46,-0.00004577,0.00005176,-0.00031283,-0.00004017,0.00000233,0.0001598
 4,-0.00017884,-0.00038432,-0.00003005,0.00025725,0.00022454,-0.0000308
 1,0.00018560,-0.00048677,-0.00198875,0.00410427,0.00010131,-0.00008275
 ,0.00029411,0.00454307,0.00231794,-0.00439014,0.00070567,-0.00159270,0
 .00069955,-0.00257989,0.00487737,-0.00218402,-0.00020826,0.00024277,0.
 00012932,-0.35302802,0.09057158,-0.27192680,-0.00851010,-0.00785438,-0
 .03905215,0.36133875,-0.00020333,0.00032785,0.00024978,0.00005364,0.00
 011299,-0.00001180,-0.00000202,-0.00000603,0.00000784,0.00104892,-0.00
 076446,-0.00007965,-0.00000363,0.00000213,-0.00000103,0.00000489,0.000
 00432,-0.00000075,0.00000148,-0.00000042,0.00000467,-0.00004106,-0.000
 00880,-0.00000002,-0.00000843,-0.00000488,0.00000240,0.00402186,-0.003
 79334,-0.00393040,-0.00082195,-0.00018092,-0.00031808,0.00047279,0.001
 16882,-0.00029805,-0.00016854,-0.00067542,0.00028413,-0.00004051,0.000
 04047,0.00001637,0.00007200,0.00019596,0.00007498,0.00006499,-0.000121
 45,-0.00003066,-0.00021830,0.00013919,-0.00007097,-0.00006244,-0.00006
 613,-0.00003755,-0.00095757,-0.00077007,0.00155084,-0.00006634,-0.0002
 8783,0.00051588,0.00453825,0.00036887,-0.00197440,-0.00372374,-0.00635
 417,-0.00197968,-0.00164765,0.01478369,-0.00339935,-0.00052884,0.00003
 942,-0.00009731,0.07911210,-0.05209624,0.04501878,0.00808773,0.0030899
 4,0.02712033,-0.08898428,0.04485652,-0.00051573,0.00028571,0.00042955,
 0.00023485,0.00006825,0.00005342,-0.00007724,-0.00000170,0.00001632,0.
 00122423,-0.00026441,0.00005721,-0.00001670,-0.00001533,-0.00003058,0.
 00000913,0.00001378,-0.00000052,0.00001301,-0.00000651,0.00001250,-0.0
 0007464,-0.00002004,-0.00001739,-0.00007557,-0.00001960,-0.00001264,0.
 00757826,-0.00467390,-0.00337879,0.00009687,-0.00052525,-0.00061978,0.
 00017737,0.00052414,-0.00061046,0.00006218,-0.00004725,0.00063003,-0.0
 0005333,-0.00000770,0.00002421,0.00007581,-0.00073814,-0.00072172,-0.0
 0047661,0.00056015,0.00024920,0.00110634,-0.00057929,0.00045089,0.0003
 4679,0.00007105,0.00003886,0.00234272,0.00168388,-0.00255339,-0.000076
 58,0.00087242,-0.00085049,-0.01028934,-0.00515918,0.00596134,0.0001306
 6,-0.00141327,0.00086364,0.00027507,0.00648378,-0.00183394,-0.00029086
 ,0.00039769,-0.00016520,-0.32183695,0.06711462,-0.35087145,0.01333797,
 -0.00198762,0.01654806,0.30677228,-0.06261627,0.33633111\\-0.00000016,
 -0.00000003,-0.00000015,0.00000018,-0.00000026,-0.00000026,0.00000017,
 0.,0.00000025,-0.00000030,0.00000026,-0.00000041,-0.00000008,0.0000000
 2,-0.00000002,-0.00000009,0.,-0.00000011,0.,-0.00000004,0.00000006,-0.
 00000010,0.00000002,0.00000006,-0.00000006,-0.00000009,-0.00000001,-0.
 00000047,0.00000027,0.00000038,0.00000040,0.00000002,0.00000029,0.0000
 0034,0.00000019,-0.00000005,-0.00000019,-0.00000013,0.00000036,0.00000
 005,0.00000007,0.,0.00000013,-0.00000054,-0.00000037,-0.00000055,-0.00
 000081,-0.00000027,0.00000115,0.00000113,0.00000022,-0.00000023,0.0000
 0044,-0.00000008,-0.00000055,0.00000003,0.00000010,0.00000005,-0.00000
 022,0.00000003,-0.00000039,-0.00000034,-0.00000007,-0.00000048,0.00000
 115,0.00000038,0.00000085,-0.00000193,-0.00000024,0.00000004,0.,0.0000
 0019,-0.00000006,0.00000145,0.00000008,0.00000042,-0.00000065,-0.00000
 054,-0.00000007,0.,0.00000017\\\@


      LET US REMEMBER, PLEASE, THAT THE SEARCH FOR THE CONSTITUTION
      OF THE WORLD IS ONE OF THE GREATEST AND NOBLEST PROBLEMS PRESENTED 
      BY NATURE.

                                                  -- GALILEO
 Job cpu time:  0 days  0 hours  0 minutes 38.2 seconds.
 File lengths (MBytes):  RWF=     21 Int=      0 D2E=      0 Chk=      3 Scr=      1
 Normal termination of Gaussian 09 at Wed Dec  4 09:58:52 2019.
