 Entering Gaussian System, Link 0=/home/programs/G09_64/g09/g09
 Initial command:
 /home/programs/G09_64/g09/l1.exe /scratch/Gau-6098.inp -scrdir=/scratch/
 Entering Link 1 = /home/programs/G09_64/g09/l1.exe PID=      6102.
  
 Copyright (c) 1988,1990,1992,1993,1995,1998,2003,2009,2010,
            Gaussian, Inc.  All Rights Reserved.
  
 This is part of the Gaussian(R) 09 program.  It is based on
 the Gaussian(R) 03 system (copyright 2003, Gaussian, Inc.),
 the Gaussian(R) 98 system (copyright 1998, Gaussian, Inc.),
 the Gaussian(R) 94 system (copyright 1995, Gaussian, Inc.),
 the Gaussian 92(TM) system (copyright 1992, Gaussian, Inc.),
 the Gaussian 90(TM) system (copyright 1990, Gaussian, Inc.),
 the Gaussian 88(TM) system (copyright 1988, Gaussian, Inc.),
 the Gaussian 86(TM) system (copyright 1986, Carnegie Mellon
 University), and the Gaussian 82(TM) system (copyright 1983,
 Carnegie Mellon University). Gaussian is a federally registered
 trademark of Gaussian, Inc.
  
 This software contains proprietary and confidential information,
 including trade secrets, belonging to Gaussian, Inc.
  
 This software is provided under written license and may be
 used, copied, transmitted, or stored only in accord with that
 written license.
  
 The following legend is applicable only to US Government
 contracts under FAR:
  
                    RESTRICTED RIGHTS LEGEND
  
 Use, reproduction and disclosure by the US Government is
 subject to restrictions as set forth in subparagraphs (a)
 and (c) of the Commercial Computer Software - Restricted
 Rights clause in FAR 52.227-19.
  
 Gaussian, Inc.
 340 Quinnipiac St., Bldg. 40, Wallingford CT 06492
  
  
 ---------------------------------------------------------------
 Warning -- This program may not be used in any manner that
 competes with the business of Gaussian, Inc. or will provide
 assistance to any competitor of Gaussian, Inc.  The licensee
 of this program is prohibited from giving any competitor of
 Gaussian, Inc. access to this program.  By using this program,
 the user acknowledges that Gaussian, Inc. is engaged in the
 business of creating and licensing software in the field of
 computational chemistry and represents and warrants to the
 licensee that it is not a competitor of Gaussian, Inc. and that
 it will not use this program in any manner prohibited above.
 ---------------------------------------------------------------
  

 Cite this work as:
 Gaussian 09, Revision B.01,
 M. J. Frisch, G. W. Trucks, H. B. Schlegel, G. E. Scuseria, 
 M. A. Robb, J. R. Cheeseman, G. Scalmani, V. Barone, B. Mennucci, 
 G. A. Petersson, H. Nakatsuji, M. Caricato, X. Li, H. P. Hratchian, 
 A. F. Izmaylov, J. Bloino, G. Zheng, J. L. Sonnenberg, M. Hada, 
 M. Ehara, K. Toyota, R. Fukuda, J. Hasegawa, M. Ishida, T. Nakajima, 
 Y. Honda, O. Kitao, H. Nakai, T. Vreven, J. A. Montgomery, Jr., 
 J. E. Peralta, F. Ogliaro, M. Bearpark, J. J. Heyd, E. Brothers, 
 K. N. Kudin, V. N. Staroverov, T. Keith, R. Kobayashi, J. Normand, 
 K. Raghavachari, A. Rendell, J. C. Burant, S. S. Iyengar, J. Tomasi, 
 M. Cossi, N. Rega, J. M. Millam, M. Klene, J. E. Knox, J. B. Cross, 
 V. Bakken, C. Adamo, J. Jaramillo, R. Gomperts, R. E. Stratmann, 
 O. Yazyev, A. J. Austin, R. Cammi, C. Pomelli, J. W. Ochterski, 
 R. L. Martin, K. Morokuma, V. G. Zakrzewski, G. A. Voth, 
 P. Salvador, J. J. Dannenberg, S. Dapprich, A. D. Daniels, 
 O. Farkas, J. B. Foresman, J. V. Ortiz, J. Cioslowski, 
 and D. J. Fox, Gaussian, Inc., Wallingford CT, 2010.
 
 ******************************************
 Gaussian 09:  AM64L-G09RevB.01 12-Aug-2010
                 4-Dec-2019 
 ******************************************
 %nproc=8
 Will use up to    8 processors via shared memory.
 %mem=6GB
 ---------------------------------------------------
 #p ONIOM(hf/3-21g:hf/sto-3g) opt=tight freq=noraman
 ---------------------------------------------------
 1/7=10,18=20,19=15,38=1,52=2/1,3;
 2/9=110,12=2,17=6,18=5,40=1/2;
 1/7=10,18=20,19=15,38=1,52=2,53=3172/20;
 3/6=3,11=9,16=1,25=1,30=1,71=1/1,2,3;
 4//1;
 5/5=2,38=5/2;
 6/7=2,8=2,9=2,10=2,28=1/1;
 7/7=1,33=-1/1,2,3,16;
 1/7=10,18=20,19=15,52=2,53=2032/20;
 3/5=5,11=9,16=1,25=1,30=1,71=1/1,2,3;
 4//1;
 5/5=2,38=5/2;
 6/7=2,8=2,9=2,10=2,28=1/1;
 7/7=1,33=-1/1,2,3,16;
 1/7=10,18=20,19=15,52=2,53=1022/20;
 3/6=3,11=9,16=1,25=1,30=1,71=1/1,2,3;
 4//1;
 5/5=2,38=5/2;
 6/7=2,8=2,9=2,10=2,28=1/1;
 7/7=1,33=-1/1,2,3,16;
 1/7=10,18=20,19=15,52=2,53=3015/20;
 7/9=1,44=-1/16;
 1/7=10,18=20,19=15,52=2/3(2);
 2/9=110/2;
 99//99;
 2/9=110/2;
 1/7=10,18=20,19=15,52=2,53=3173/20;
 3/6=3,11=9,16=1,25=1,30=1,71=1/1,2,3;
 4/5=5,16=3/1;
 5/5=2,38=5/2;
 7/7=1,33=-1/1,2,3,16;
 1/7=10,18=20,19=15,52=2,53=2033/20;
 3/5=5,11=9,16=1,25=1,30=1,71=1/1,2,3;
 4/5=5,16=3/1;
 5/5=2,38=5/2;
 7/7=1,33=-1/1,2,3,16;
 1/7=10,18=20,19=15,52=2,53=1023/20;
 3/6=3,11=9,16=1,25=1,30=1,71=1/1,2,3;
 4/5=5,16=3/1;
 5/5=2,38=5/2;
 7/7=1,33=-1/1,2,3,16;
 1/7=10,18=20,19=15,52=2,53=3015/20;
 7/9=1,44=-1/16;
 1/7=10,18=20,19=15,52=2/3(-18);
 2/9=110/2;
 99//99;
 Leave Link    1 at Wed Dec  4 09:57:49 2019, MaxMem=  805306368 cpu:       0.3
 (Enter /home/programs/G09_64/g09/l101.exe)
 ---------------------
 Ethanol, g1 conformer
 ---------------------
 Symbolic Z-matrix:
 Charge =  0 Multiplicity = 1 for low   level calculation on real  system.
 Charge =  0 Multiplicity = 1 for high  level calculation on model system.
 Charge =  0 Multiplicity = 1 for low   level calculation on model system.
 O                    -1.05134  -0.76993  -0.15018  H 
 C                    -2.4562   -1.00387  -0.26788  H 
 C                    -2.86317  -2.07054   0.74787  H 
 H                    -0.41653  -1.55378  -0.17041  H 
 H                    -3.92602  -2.27044   0.68459  H 
 H                    -2.62896  -1.73545   1.75009  H 
 H                    -2.3226   -2.9885    0.55569  H 
 H                    -2.70522  -1.34132  -1.269    H 
 H                    -3.01324  -0.09176  -0.08052  H 
 O                     0.26113   0.43643   1.75678  L 
 H                    -0.43879  -0.0136    1.22038  L 
 H                     0.27225   1.39062   1.36333  L 
 O                     0.25728   2.50912   0.55625  L 
 H                    -0.57196   3.02478   0.66152  L 
 H                     0.16743   2.05947  -0.37544  L 
 O                     0.08619   1.20817  -1.43785  L 
 H                     1.01689   0.85158  -1.53916  L 
 H                    -0.42132   0.42971  -1.08962  L 
 O                     2.42461   0.28113  -1.34106  L 
 H                     3.08742   1.00387  -1.26916  L 
 H                     2.42061  -0.11984  -0.41708  L 
 O                     0.67313  -2.45669  -0.06201  L 
 H                     1.36545  -1.85698   0.3826   L 
 H                     1.0669   -2.64936  -0.94164  L 
 O                     2.08511  -0.72871   0.90993  L 
 H                     1.28677  -0.15541   1.38944  L 
 H                     2.77403  -0.91211   1.58156  L 
 
 NAtoms=     27 NQM=     27 NQMF=      0 NMic=      0 NMicF=      0 NTot=     27.
                    Isotopes and Nuclear Properties:
 (Nuclear quadrupole moments (NQMom) in fm**2, nuclear magnetic moments (NMagM)
  in nuclear magnetons)

  Atom         1           2           3           4           5           6           7           8           9          10
 IAtWgt=          16          12          12           1           1           1           1           1           1          16
 AtmWgt=  15.9949146  12.0000000  12.0000000   1.0078250   1.0078250   1.0078250   1.0078250   1.0078250   1.0078250  15.9949146
 NucSpn=           0           0           0           1           1           1           1           1           1           0
 AtZEff=   0.0000000   0.0000000   0.0000000   0.0000000   0.0000000   0.0000000   0.0000000   0.0000000   0.0000000   0.0000000
 NQMom=    0.0000000   0.0000000   0.0000000   0.0000000   0.0000000   0.0000000   0.0000000   0.0000000   0.0000000   0.0000000
 NMagM=    0.0000000   0.0000000   0.0000000   2.7928460   2.7928460   2.7928460   2.7928460   2.7928460   2.7928460   0.0000000

  Atom        11          12          13          14          15          16          17          18          19          20
 IAtWgt=           1           1          16           1           1          16           1           1          16           1
 AtmWgt=   1.0078250   1.0078250  15.9949146   1.0078250   1.0078250  15.9949146   1.0078250   1.0078250  15.9949146   1.0078250
 NucSpn=           1           1           0           1           1           0           1           1           0           1
 AtZEff=   0.0000000   0.0000000   0.0000000   0.0000000   0.0000000   0.0000000   0.0000000   0.0000000   0.0000000   0.0000000
 NQMom=    0.0000000   0.0000000   0.0000000   0.0000000   0.0000000   0.0000000   0.0000000   0.0000000   0.0000000   0.0000000
 NMagM=    2.7928460   2.7928460   0.0000000   2.7928460   2.7928460   0.0000000   2.7928460   2.7928460   0.0000000   2.7928460

  Atom        21          22          23          24          25          26          27
 IAtWgt=           1          16           1           1          16           1           1
 AtmWgt=   1.0078250  15.9949146   1.0078250   1.0078250  15.9949146   1.0078250   1.0078250
 NucSpn=           1           0           1           1           0           1           1
 AtZEff=   0.0000000   0.0000000   0.0000000   0.0000000   0.0000000   0.0000000   0.0000000
 NQMom=    0.0000000   0.0000000   0.0000000   0.0000000   0.0000000   0.0000000   0.0000000
 NMagM=    2.7928460   0.0000000   2.7928460   2.7928460   0.0000000   2.7928460   2.7928460
 Leave Link  101 at Wed Dec  4 09:57:49 2019, MaxMem=  805306368 cpu:       0.8
 (Enter /home/programs/G09_64/g09/l103.exe)

 GradGradGradGradGradGradGradGradGradGradGradGradGradGradGradGradGradGrad
 Berny optimization.
 Initialization pass.
                           ----------------------------
                           !    Initial Parameters    !
                           ! (Angstroms and Degrees)  !
 --------------------------                            --------------------------
 ! Name  Definition              Value          Derivative Info.                !
 --------------------------------------------------------------------------------
 ! R1    R(1,2)                  1.4291         estimate D2E/DX2                !
 ! R2    R(1,4)                  1.0089         estimate D2E/DX2                !
 ! R3    R(1,11)                 1.681          estimate D2E/DX2                !
 ! R4    R(1,18)                 1.6488         estimate D2E/DX2                !
 ! R5    R(2,3)                  1.5281         estimate D2E/DX2                !
 ! R6    R(2,8)                  1.0854         estimate D2E/DX2                !
 ! R7    R(2,9)                  1.0851         estimate D2E/DX2                !
 ! R8    R(3,5)                  1.0833         estimate D2E/DX2                !
 ! R9    R(3,6)                  1.0824         estimate D2E/DX2                !
 ! R10   R(3,7)                  1.0825         estimate D2E/DX2                !
 ! R11   R(4,22)                 1.4193         estimate D2E/DX2                !
 ! R12   R(10,11)                0.99           estimate D2E/DX2                !
 ! R13   R(10,12)                1.0322         estimate D2E/DX2                !
 ! R14   R(10,26)                1.2398         estimate D2E/DX2                !
 ! R15   R(12,13)                1.3794         estimate D2E/DX2                !
 ! R16   R(13,14)                0.9822         estimate D2E/DX2                !
 ! R17   R(13,15)                1.0384         estimate D2E/DX2                !
 ! R18   R(15,16)                1.3638         estimate D2E/DX2                !
 ! R19   R(16,17)                1.0018         estimate D2E/DX2                !
 ! R20   R(16,18)                0.9924         estimate D2E/DX2                !
 ! R21   R(17,19)                1.5318         estimate D2E/DX2                !
 ! R22   R(19,20)                0.9833         estimate D2E/DX2                !
 ! R23   R(19,21)                1.0072         estimate D2E/DX2                !
 ! R24   R(21,25)                1.4981         estimate D2E/DX2                !
 ! R25   R(22,23)                1.0181         estimate D2E/DX2                !
 ! R26   R(22,24)                0.9828         estimate D2E/DX2                !
 ! R27   R(23,25)                1.4384         estimate D2E/DX2                !
 ! R28   R(25,26)                1.0936         estimate D2E/DX2                !
 ! R29   R(25,27)                0.9795         estimate D2E/DX2                !
 ! A1    A(2,1,4)              119.3231         estimate D2E/DX2                !
 ! A2    A(2,1,11)             119.9365         estimate D2E/DX2                !
 ! A3    A(2,1,18)             116.6034         estimate D2E/DX2                !
 ! A4    A(4,1,11)              97.8533         estimate D2E/DX2                !
 ! A5    A(4,1,18)             108.2668         estimate D2E/DX2                !
 ! A6    A(11,1,18)             89.8822         estimate D2E/DX2                !
 ! A7    A(1,2,3)              108.7435         estimate D2E/DX2                !
 ! A8    A(1,2,8)              110.6341         estimate D2E/DX2                !
 ! A9    A(1,2,9)              110.6616         estimate D2E/DX2                !
 ! A10   A(3,2,8)              109.5706         estimate D2E/DX2                !
 ! A11   A(3,2,9)              109.5895         estimate D2E/DX2                !
 ! A12   A(8,2,9)              107.6271         estimate D2E/DX2                !
 ! A13   A(2,3,5)              110.5641         estimate D2E/DX2                !
 ! A14   A(2,3,6)              109.9831         estimate D2E/DX2                !
 ! A15   A(2,3,7)              109.9337         estimate D2E/DX2                !
 ! A16   A(5,3,6)              108.8749         estimate D2E/DX2                !
 ! A17   A(5,3,7)              108.8495         estimate D2E/DX2                !
 ! A18   A(6,3,7)              108.5936         estimate D2E/DX2                !
 ! A19   A(1,4,22)             167.3814         estimate D2E/DX2                !
 ! A20   A(11,10,12)           102.7857         estimate D2E/DX2                !
 ! A21   A(11,10,26)           101.9655         estimate D2E/DX2                !
 ! A22   A(12,10,26)           108.6289         estimate D2E/DX2                !
 ! A23   A(1,11,10)            154.6766         estimate D2E/DX2                !
 ! A24   A(10,12,13)           166.538          estimate D2E/DX2                !
 ! A25   A(12,13,14)           111.8506         estimate D2E/DX2                !
 ! A26   A(12,13,15)           100.0663         estimate D2E/DX2                !
 ! A27   A(14,13,15)           104.5049         estimate D2E/DX2                !
 ! A28   A(13,15,16)           167.0006         estimate D2E/DX2                !
 ! A29   A(15,16,17)           104.2187         estimate D2E/DX2                !
 ! A30   A(15,16,18)           104.2856         estimate D2E/DX2                !
 ! A31   A(17,16,18)           103.3778         estimate D2E/DX2                !
 ! A32   A(16,17,19)           166.7202         estimate D2E/DX2                !
 ! A33   A(1,18,16)            165.0327         estimate D2E/DX2                !
 ! A34   A(17,19,20)           110.8067         estimate D2E/DX2                !
 ! A35   A(17,19,21)           105.2622         estimate D2E/DX2                !
 ! A36   A(20,19,21)           103.1912         estimate D2E/DX2                !
 ! A37   A(19,21,25)           167.2319         estimate D2E/DX2                !
 ! A38   A(4,22,23)            100.4102         estimate D2E/DX2                !
 ! A39   A(4,22,24)            111.3444         estimate D2E/DX2                !
 ! A40   A(23,22,24)           103.5253         estimate D2E/DX2                !
 ! A41   A(22,23,25)           164.2213         estimate D2E/DX2                !
 ! A42   A(21,25,23)            96.0912         estimate D2E/DX2                !
 ! A43   A(21,25,26)           109.8051         estimate D2E/DX2                !
 ! A44   A(21,25,27)           121.7352         estimate D2E/DX2                !
 ! A45   A(23,25,26)           101.9297         estimate D2E/DX2                !
 ! A46   A(23,25,27)           117.1567         estimate D2E/DX2                !
 ! A47   A(26,25,27)           108.1175         estimate D2E/DX2                !
 ! A48   A(10,26,25)           169.7579         estimate D2E/DX2                !
 ! D1    D(4,1,2,3)             51.07           estimate D2E/DX2                !
 ! D2    D(4,1,2,8)            -69.3112         estimate D2E/DX2                !
 ! D3    D(4,1,2,9)            171.4913         estimate D2E/DX2                !
 ! D4    D(11,1,2,3)           -69.216          estimate D2E/DX2                !
 ! D5    D(11,1,2,8)           170.4029         estimate D2E/DX2                !
 ! D6    D(11,1,2,9)            51.2054         estimate D2E/DX2                !
 ! D7    D(18,1,2,3)          -175.8205         estimate D2E/DX2                !
 ! D8    D(18,1,2,8)            63.7983         estimate D2E/DX2                !
 ! D9    D(18,1,2,9)           -55.3992         estimate D2E/DX2                !
 ! D10   D(2,1,4,22)          -160.0147         estimate D2E/DX2                !
 ! D11   D(11,1,4,22)          -29.0743         estimate D2E/DX2                !
 ! D12   D(18,1,4,22)           63.4098         estimate D2E/DX2                !
 ! D13   D(2,1,11,10)         -168.2935         estimate D2E/DX2                !
 ! D14   D(4,1,11,10)           61.1712         estimate D2E/DX2                !
 ! D15   D(18,1,11,10)         -47.2576         estimate D2E/DX2                !
 ! D16   D(2,1,18,16)          137.2735         estimate D2E/DX2                !
 ! D17   D(4,1,18,16)          -84.8157         estimate D2E/DX2                !
 ! D18   D(11,1,18,16)          13.4179         estimate D2E/DX2                !
 ! D19   D(1,2,3,5)            179.9356         estimate D2E/DX2                !
 ! D20   D(1,2,3,6)             59.6655         estimate D2E/DX2                !
 ! D21   D(1,2,3,7)            -59.8579         estimate D2E/DX2                !
 ! D22   D(8,2,3,5)            -59.028          estimate D2E/DX2                !
 ! D23   D(8,2,3,6)           -179.298          estimate D2E/DX2                !
 ! D24   D(8,2,3,7)             61.1786         estimate D2E/DX2                !
 ! D25   D(9,2,3,5)             58.8539         estimate D2E/DX2                !
 ! D26   D(9,2,3,6)            -61.4162         estimate D2E/DX2                !
 ! D27   D(9,2,3,7)            179.0604         estimate D2E/DX2                !
 ! D28   D(1,4,22,23)           -0.1889         estimate D2E/DX2                !
 ! D29   D(1,4,22,24)         -109.2813         estimate D2E/DX2                !
 ! D30   D(12,10,11,1)          77.4046         estimate D2E/DX2                !
 ! D31   D(26,10,11,1)         -35.1105         estimate D2E/DX2                !
 ! D32   D(11,10,12,13)        -41.0084         estimate D2E/DX2                !
 ! D33   D(26,10,12,13)         66.5            estimate D2E/DX2                !
 ! D34   D(11,10,26,25)         19.6762         estimate D2E/DX2                !
 ! D35   D(12,10,26,25)        -88.3931         estimate D2E/DX2                !
 ! D36   D(10,12,13,14)        109.8724         estimate D2E/DX2                !
 ! D37   D(10,12,13,15)         -0.3248         estimate D2E/DX2                !
 ! D38   D(12,13,15,16)         -6.5886         estimate D2E/DX2                !
 ! D39   D(14,13,15,16)       -122.4615         estimate D2E/DX2                !
 ! D40   D(13,15,16,17)        -69.9251         estimate D2E/DX2                !
 ! D41   D(13,15,16,18)         38.1835         estimate D2E/DX2                !
 ! D42   D(15,16,17,19)         43.2886         estimate D2E/DX2                !
 ! D43   D(18,16,17,19)        -65.4901         estimate D2E/DX2                !
 ! D44   D(15,16,18,1)         -34.8815         estimate D2E/DX2                !
 ! D45   D(17,16,18,1)          73.8472         estimate D2E/DX2                !
 ! D46   D(16,17,19,20)        -93.0674         estimate D2E/DX2                !
 ! D47   D(16,17,19,21)         17.8323         estimate D2E/DX2                !
 ! D48   D(17,19,21,25)         22.7509         estimate D2E/DX2                !
 ! D49   D(20,19,21,25)        138.9912         estimate D2E/DX2                !
 ! D50   D(19,21,25,23)         55.1589         estimate D2E/DX2                !
 ! D51   D(19,21,25,26)        -49.8746         estimate D2E/DX2                !
 ! D52   D(19,21,25,27)       -177.5612         estimate D2E/DX2                !
 ! D53   D(4,22,23,25)         -12.8271         estimate D2E/DX2                !
 ! D54   D(24,22,23,25)        102.3118         estimate D2E/DX2                !
 ! D55   D(22,23,25,21)        -68.9187         estimate D2E/DX2                !
 ! D56   D(22,23,25,26)         42.8471         estimate D2E/DX2                !
 ! D57   D(22,23,25,27)        160.5953         estimate D2E/DX2                !
 ! D58   D(21,25,26,10)         61.5401         estimate D2E/DX2                !
 ! D59   D(23,25,26,10)        -39.4919         estimate D2E/DX2                !
 ! D60   D(27,25,26,10)       -163.5451         estimate D2E/DX2                !
 --------------------------------------------------------------------------------
 Trust Radius=3.00D-01 FncErr=1.00D-07 GrdErr=1.00D-07
 Number of steps in this run=    147 maximum allowed number of steps=    162.
 GradGradGradGradGradGradGradGradGradGradGradGradGradGradGradGradGradGrad

 Leave Link  103 at Wed Dec  4 09:57:49 2019, MaxMem=  805306368 cpu:       0.1
 (Enter /home/programs/G09_64/g09/l202.exe)
                          Input orientation:                          
 ---------------------------------------------------------------------
 Center     Atomic      Atomic             Coordinates (Angstroms)
 Number     Number       Type             X           Y           Z
 ---------------------------------------------------------------------
      1          8           0       -1.051339   -0.769932   -0.150178
      2          6           0       -2.456199   -1.003871   -0.267878
      3          6           0       -2.863168   -2.070543    0.747870
      4          1           0       -0.416534   -1.553776   -0.170405
      5          1           0       -3.926017   -2.270442    0.684586
      6          1           0       -2.628958   -1.735451    1.750093
      7          1           0       -2.322600   -2.988504    0.555695
      8          1           0       -2.705219   -1.341321   -1.268999
      9          1           0       -3.013236   -0.091758   -0.080524
     10          8           0        0.261125    0.436427    1.756779
     11          1           0       -0.438785   -0.013597    1.220375
     12          1           0        0.272245    1.390618    1.363333
     13          8           0        0.257280    2.509119    0.556252
     14          1           0       -0.571955    3.024783    0.661522
     15          1           0        0.167430    2.059467   -0.375438
     16          8           0        0.086192    1.208169   -1.437848
     17          1           0        1.016889    0.851576   -1.539159
     18          1           0       -0.421315    0.429714   -1.089622
     19          8           0        2.424608    0.281128   -1.341060
     20          1           0        3.087424    1.003868   -1.269161
     21          1           0        2.420607   -0.119837   -0.417078
     22          8           0        0.673133   -2.456686   -0.062010
     23          1           0        1.365450   -1.856982    0.382603
     24          1           0        1.066905   -2.649363   -0.941635
     25          8           0        2.085110   -0.728708    0.909929
     26          1           0        1.286768   -0.155408    1.389439
     27          1           0        2.774031   -0.912106    1.581557
 ---------------------------------------------------------------------
                    Distance matrix (angstroms):
                    1          2          3          4          5
     1  O    0.000000
     2  C    1.429060   0.000000
     3  C    2.404330   1.528122   0.000000
     4  H    1.008860   2.114741   2.663887   0.000000
     5  H    3.348453   2.161424   1.083334   3.682539   0.000000
     6  H    2.651818   2.153430   1.082401   2.935326   1.761785
     7  H    2.652626   2.152880   1.082496   2.493743   1.761583
     8  H    2.076913   1.085416   2.150459   2.547573   2.483970
     9  H    2.076972   1.085054   2.150430   2.981348   2.482987
    10  O    2.610431   3.682057   4.130860   2.852046   5.099892
    11  H    1.680976   2.695459   3.214331   2.075311   4.188223
    12  H    2.951367   3.979803   4.710546   3.390608   5.611548
    13  O    3.600514   4.514782   5.545018   4.182006   6.353003
    14  H    3.910055   4.543590   5.587438   4.656121   6.268148
    15  H    3.088954   4.034729   5.244362   3.665867   6.052113
    16  O    2.620106   3.567310   4.921996   3.080176   5.718678
    17  H    2.972562   4.137775   5.368811   3.116714   6.254947
    18  H    1.648829   2.621294   3.948457   2.186142   4.766717
    19  O    3.821666   5.159963   6.152606   3.579021   7.137520
    20  H    4.639811   5.980413   6.994996   4.475101   7.982894
    21  H    3.542353   4.958529   5.751577   3.188479   6.791053
    22  O    2.413859   3.456266   3.648347   1.419285   4.663076
    23  H    2.703036   3.969373   4.249734   1.890296   5.316180
    24  H    2.940344   3.946372   4.316820   1.998924   5.264736
    25  O    3.311018   4.699620   5.129546   2.847118   6.209781
    26  H    2.866148   4.180477   4.615336   2.699960   5.669508
    27  H    4.201497   5.548345   5.815069   3.696054   6.894946
                    6          7          8          9         10
     6  H    0.000000
     7  H    1.758006   0.000000
     8  H    3.045665   2.487794   0.000000
     9  H    2.490091   3.045142   1.751786   0.000000
    10  O    3.615201   4.455154   4.595098   3.791583   0.000000
    11  H    2.835884   3.583383   3.618917   2.885523   0.990013
    12  H    4.282391   5.153854   4.822651   3.882853   1.032184
    13  O    5.269915   6.072861   5.189782   4.226857   2.395273
    14  H    5.298686   6.263831   5.228824   4.027817   2.931416
    15  H    5.170983   5.705197   4.540476   3.851153   2.681303
    16  O    5.118584   5.233408   3.784229   3.624720   3.291174
    17  H    5.550143   5.503346   4.328496   4.388553   3.406866
    18  H    4.198286   4.243368   2.895680   2.829888   2.927075
    19  O    6.257823   6.068291   5.380768   5.594474   3.781717
    20  H    7.021167   6.966886   6.249370   6.311205   4.179266
    21  H    5.727560   5.627926   5.337779   5.444328   3.114233
    22  O    3.835062   3.104643   3.756877   4.379788   3.442070
    23  H    4.223754   3.861608   4.423126   4.743774   2.892684
    24  H    4.662622   3.720989   4.005879   4.891871   4.177657
    25  O    4.893040   4.965891   5.298139   5.232574   2.324138
    26  H    4.237867   4.663593   4.940612   4.544764   1.239819
    27  H    5.467961   5.598167   6.191291   6.076837   2.857261
                   11         12         13         14         15
    11  H    0.000000
    12  H    1.580449   0.000000
    13  O    2.699937   1.379365   0.000000
    14  H    3.092217   1.968682   0.982152   0.000000
    15  H    2.685463   1.865923   1.038415   1.598065   0.000000
    16  O    2.972282   2.813275   2.387085   2.853173   1.363827
    17  H    3.237675   3.044589   2.777625   3.477104   1.880114
    18  H    2.352215   2.724216   2.737392   3.134259   1.874240
    19  O    3.853159   3.630066   3.641572   4.529610   3.031463
    20  H    4.434769   3.873607   3.688852   4.604638   3.231005
    21  H    3.296765   3.172822   3.541012   4.472968   3.134949
    22  O    2.974820   4.122385   5.021394   5.667473   4.555174
    23  H    2.712046   3.564244   4.507886   5.259559   4.165147
    24  H    3.726748   4.718666   5.432227   6.119796   4.827289
    25  O    2.641554   2.825526   3.734913   4.605474   3.619887
    26  H    1.739605   1.849361   2.975525   3.754774   3.045222
    27  H    3.355586   3.407212   4.369218   5.247969   4.410719
                   16         17         18         19         20
    16  O    0.000000
    17  H    1.001808   0.000000
    18  H    0.992379   1.564763   0.000000
    19  O    2.517332   1.531772   2.860870   0.000000
    20  H    3.012904   2.093611   3.559935   0.983284   0.000000
    21  H    2.873163   2.042825   2.971673   1.007240   1.559937
    22  O    3.958357   3.639332   3.253476   3.492744   4.388787
    23  H    3.787571   3.339304   3.254067   2.943526   3.725316
    24  H    4.011057   3.551916   3.423071   3.254332   4.187585
    25  O    3.641322   3.104259   3.409151   2.490377   2.958866
    26  H    3.360696   3.108623   3.066865   2.990128   3.413860
    27  H    4.564740   3.992116   4.375604   3.176097   3.449024
                   21         22         23         24         25
    21  H    0.000000
    22  O    2.939490   0.000000
    23  H    2.184152   1.018150   0.000000
    24  H    2.916534   0.982813   1.571815   0.000000
    25  O    1.498075   2.433979   1.438397   2.855512   0.000000
    26  H    2.133157   2.789110   1.978703   3.420827   1.093596
    27  H    2.178793   3.082339   2.077109   3.506970   0.979455
                   26         27
    26  H    0.000000
    27  H    1.679718   0.000000
 Stoichiometry    C2H18O7
 Framework group  C1[X(C2H18O7)]
 Deg. of freedom    75
 Full point group                 C1      NOp   1
 Largest Abelian subgroup         C1      NOp   1
 Largest concise Abelian subgroup C1      NOp   1
                         Standard orientation:                         
 ---------------------------------------------------------------------
 Center     Atomic      Atomic             Coordinates (Angstroms)
 Number     Number       Type             X           Y           Z
 ---------------------------------------------------------------------
      1          8           0        1.158768   -0.151385   -0.371856
      2          6           0        2.442158   -0.716957   -0.646173
      3          6           0        3.475584   -0.053845    0.263481
      4          1           0        1.051384    0.851738   -0.368554
      5          1           0        4.461906   -0.462781    0.080304
      6          1           0        3.215216   -0.218969    1.301043
      7          1           0        3.499344    1.012565    0.079086
      8          1           0        2.716268   -0.557913   -1.684295
      9          1           0        2.434725   -1.787353   -0.468578
     10          8           0       -0.366431   -0.472090    1.722246
     11          1           0        0.398004   -0.468644    1.093158
     12          1           0       -0.937206   -1.262716    1.383822
     13          8           0       -1.622963   -2.200877    0.640694
     14          1           0       -1.198723   -3.085444    0.687418
     15          1           0       -1.412764   -1.861933   -0.318076
     16          8           0       -1.007674   -1.179697   -1.427346
     17          1           0       -1.602011   -0.373584   -1.451139
     18          1           0       -0.123580   -0.805782   -1.175588
     19          8           0       -2.443505    0.867910   -1.139841
     20          1           0       -3.378257    0.620505   -0.961298
     21          1           0       -2.116428    1.192128   -0.244054
     22          8           0        0.644285    2.200517   -0.196990
     23          1           0       -0.205385    2.068308    0.348180
     24          1           0        0.318604    2.585915   -1.040389
     25          8           0       -1.354091    1.506323    1.006688
     26          1           0       -0.943451    0.586022    1.431393
     27          1           0       -1.751197    2.027150    1.734957
 ---------------------------------------------------------------------
 Rotational constants (GHZ):      1.1865067      0.7585092      0.6407162
 Leave Link  202 at Wed Dec  4 09:57:49 2019, MaxMem=  805306368 cpu:       0.0
 (Enter /home/programs/G09_64/g09/l120.exe)
 ONIOM: saving gridpoint 17
 ONIOM: generating point  3 -- low level on real system.
 Leave Link  120 at Wed Dec  4 09:57:49 2019, MaxMem=  805306368 cpu:       0.0
 (Enter /home/programs/G09_64/g09/l301.exe)
 Standard basis: STO-3G (5D, 7F)
 Ernie: Thresh=  0.10000D-02 Tol=  0.10000D-05 Strict=F.
 There are    63 symmetry adapted basis functions of A   symmetry.
 Integral buffers will be    131072 words long.
 Raffenetti 1 integral format.
 Two-electron integral symmetry is turned on.
    63 basis functions,   189 primitive gaussians,    63 cartesian basis functions
    43 alpha electrons       43 beta electrons
       nuclear repulsion energy       615.4743644173 Hartrees.
 IExCor=    0 DFT=F Ex=HF Corr=None ExCW=0 ScaHFX=  1.000000
 ScaDFX=  1.000000  1.000000  1.000000  1.000000 ScalE2=  1.000000  1.000000
 IRadAn=      0 IRanWt=     -1 IRanGd=            0 ICorTp=0
 NAtoms=   27 NActive=   27 NUniq=   27 SFac= 1.00D+00 NAtFMM=   50 NAOKFM=F Big=F
 Leave Link  301 at Wed Dec  4 09:57:49 2019, MaxMem=  805306368 cpu:       0.3
 (Enter /home/programs/G09_64/g09/l302.exe)
 NPDir=0 NMtPBC=     1 NCelOv=     1 NCel=       1 NClECP=     1 NCelD=      1
         NCelK=      1 NCelE2=     1 NClLst=     1 CellRange=     0.0.
 One-electron integrals computed using PRISM.
 NBasis=    63 RedAO= T  NBF=    63
 NBsUse=    63 1.00D-06 NBFU=    63
 Leave Link  302 at Wed Dec  4 09:57:49 2019, MaxMem=  805306368 cpu:       1.0
 (Enter /home/programs/G09_64/g09/l303.exe)
 DipDrv:  MaxL=1.
 Leave Link  303 at Wed Dec  4 09:57:49 2019, MaxMem=  805306368 cpu:       0.3
 (Enter /home/programs/G09_64/g09/l401.exe)
 Harris functional with IExCor=  205 diagonalized for initial guess.
 ExpMin= 1.69D-01 ExpMax= 1.31D+02 ExpMxC= 1.31D+02 IAcc=1 IRadAn=         1 AccDes= 0.00D+00
 HarFok:  IExCor=  205 AccDes= 0.00D+00 IRadAn=         1 IDoV= 1
 ScaDFX=  1.000000  1.000000  1.000000  1.000000
 FoFCou: FMM=F IPFlag=           0 FMFlag=      100000 FMFlg1=           0
         NFxFlg=           0 DoJE=T BraDBF=F KetDBF=T FulRan=T
         Omega=  0.000000  0.000000  1.000000  0.000000  0.000000 ICntrl=     500 IOpCl=  0
         NMat0=    1 NMatS0=    1 NMatT0=    0 NMatD0=    1 NMtDS0=    0 NMtDT0=    0
         I1Cent=           4 NGrid=           0.
 Petite list used in FoFCou.
 Harris En= -602.785762511521    
 Initial guess orbital symmetries:
       Occupied  (A) (A) (A) (A) (A) (A) (A) (A) (A) (A) (A) (A)
                 (A) (A) (A) (A) (A) (A) (A) (A) (A) (A) (A) (A)
                 (A) (A) (A) (A) (A) (A) (A) (A) (A) (A) (A) (A)
                 (A) (A) (A) (A) (A) (A) (A)
       Virtual   (A) (A) (A) (A) (A) (A) (A) (A) (A) (A) (A) (A)
                 (A) (A) (A) (A) (A) (A) (A) (A)
 The electronic state of the initial guess is 1-A.
 Leave Link  401 at Wed Dec  4 09:57:50 2019, MaxMem=  805306368 cpu:       1.8
 (Enter /home/programs/G09_64/g09/l502.exe)
 Closed shell SCF:
 Requested convergence on RMS density matrix=1.00D-08 within 128 cycles.
 Requested convergence on MAX density matrix=1.00D-06.
 Requested convergence on             energy=1.00D-06.
 No special actions if energy rises.
 Using DIIS extrapolation, IDIIS=  1040.
 Integral symmetry usage will be decided dynamically.
 Keep R1 ints in memory in canonical form, NReq=2864238.
 IEnd=       31088 IEndB=       31088 NGot=   805306368 MDV=   803262789
 LenX=   803262789 LenY=   803258379
 Symmetry not used in FoFDir.
 MinBra= 0 MaxBra= 1 Meth= 1.
 IRaf=       0 NMat=   1 IRICut=       1 DoRegI=T DoRafI=F ISym2E= 0 JSym2E=0.

 Cycle   1  Pass 1  IDiag  1:
 E= -601.839517127031    
 DIIS: error= 3.97D-02 at cycle   1 NSaved=   1.
 NSaved= 1 IEnMin= 1 EnMin= -601.839517127031     IErMin= 1 ErrMin= 3.97D-02
 ErrMax= 3.97D-02 EMaxC= 1.00D-01 BMatC= 1.74D-01 BMatP= 1.74D-01
 IDIUse=3 WtCom= 6.03D-01 WtEn= 3.97D-01
 Coeff-Com:  0.100D+01
 Coeff-En:   0.100D+01
 Coeff:      0.100D+01
 Gap=     0.896 Goal=   None    Shift=    0.000
 GapD=    0.896 DampG=2.000 DampE=0.500 DampFc=1.0000 IDamp=-1.
 RMSDP=8.92D-03 MaxDP=1.14D-01              OVMax= 0.00D+00

 Cycle   2  Pass 1  IDiag  1:
 E= -602.042906563349     Delta-E=       -0.203389436318 Rises=F Damp=F
 DIIS: error= 6.45D-03 at cycle   2 NSaved=   2.
 NSaved= 2 IEnMin= 2 EnMin= -602.042906563349     IErMin= 2 ErrMin= 6.45D-03
 ErrMax= 6.45D-03 EMaxC= 1.00D-01 BMatC= 4.59D-03 BMatP= 1.74D-01
 IDIUse=3 WtCom= 9.36D-01 WtEn= 6.45D-02
 Coeff-Com:  0.166D-01 0.983D+00
 Coeff-En:   0.000D+00 0.100D+01
 Coeff:      0.156D-01 0.984D+00
 Gap=     0.859 Goal=   None    Shift=    0.000
 RMSDP=1.76D-03 MaxDP=2.37D-02 DE=-2.03D-01 OVMax= 0.00D+00

 Cycle   3  Pass 1  IDiag  1:
 E= -602.049897156927     Delta-E=       -0.006990593578 Rises=F Damp=F
 DIIS: error= 1.46D-03 at cycle   3 NSaved=   3.
 NSaved= 3 IEnMin= 3 EnMin= -602.049897156927     IErMin= 3 ErrMin= 1.46D-03
 ErrMax= 1.46D-03 EMaxC= 1.00D-01 BMatC= 3.54D-04 BMatP= 4.59D-03
 IDIUse=3 WtCom= 9.85D-01 WtEn= 1.46D-02
 Coeff-Com: -0.205D-01-0.201D-01 0.104D+01
 Coeff-En:   0.000D+00 0.000D+00 0.100D+01
 Coeff:     -0.202D-01-0.198D-01 0.104D+01
 Gap=     0.856 Goal=   None    Shift=    0.000
 RMSDP=6.15D-04 MaxDP=5.46D-03 DE=-6.99D-03 OVMax= 0.00D+00

 Cycle   4  Pass 1  IDiag  1:
 E= -602.050629912961     Delta-E=       -0.000732756034 Rises=F Damp=F
 DIIS: error= 7.50D-04 at cycle   4 NSaved=   4.
 NSaved= 4 IEnMin= 4 EnMin= -602.050629912961     IErMin= 4 ErrMin= 7.50D-04
 ErrMax= 7.50D-04 EMaxC= 1.00D-01 BMatC= 3.31D-05 BMatP= 3.54D-04
 IDIUse=3 WtCom= 9.92D-01 WtEn= 7.50D-03
 Coeff-Com:  0.361D-03-0.601D-01-0.643D-01 0.112D+01
 Coeff-En:   0.000D+00 0.000D+00 0.000D+00 0.100D+01
 Coeff:      0.358D-03-0.597D-01-0.638D-01 0.112D+01
 Gap=     0.855 Goal=   None    Shift=    0.000
 RMSDP=2.35D-04 MaxDP=2.71D-03 DE=-7.33D-04 OVMax= 0.00D+00

 Cycle   5  Pass 1  IDiag  1:
 E= -602.050710353195     Delta-E=       -0.000080440234 Rises=F Damp=F
 DIIS: error= 1.75D-04 at cycle   5 NSaved=   5.
 NSaved= 5 IEnMin= 5 EnMin= -602.050710353195     IErMin= 5 ErrMin= 1.75D-04
 ErrMax= 1.75D-04 EMaxC= 1.00D-01 BMatC= 2.22D-06 BMatP= 3.31D-05
 IDIUse=3 WtCom= 9.98D-01 WtEn= 1.75D-03
 Coeff-Com:  0.946D-03 0.477D-02-0.545D-01-0.593D-01 0.111D+01
 Coeff-En:   0.000D+00 0.000D+00 0.000D+00 0.000D+00 0.100D+01
 Coeff:      0.944D-03 0.477D-02-0.544D-01-0.592D-01 0.111D+01
 Gap=     0.855 Goal=   None    Shift=    0.000
 RMSDP=6.21D-05 MaxDP=4.91D-04 DE=-8.04D-05 OVMax= 0.00D+00

 Cycle   6  Pass 1  IDiag  1:
 E= -602.050715866312     Delta-E=       -0.000005513117 Rises=F Damp=F
 DIIS: error= 6.27D-05 at cycle   6 NSaved=   6.
 NSaved= 6 IEnMin= 6 EnMin= -602.050715866312     IErMin= 6 ErrMin= 6.27D-05
 ErrMax= 6.27D-05 EMaxC= 1.00D-01 BMatC= 1.59D-07 BMatP= 2.22D-06
 IDIUse=1 WtCom= 1.00D+00 WtEn= 0.00D+00
 Coeff-Com: -0.687D-04 0.507D-02 0.699D-02-0.940D-01-0.390D-01 0.112D+01
 Coeff:     -0.687D-04 0.507D-02 0.699D-02-0.940D-01-0.390D-01 0.112D+01
 Gap=     0.855 Goal=   None    Shift=    0.000
 RMSDP=1.82D-05 MaxDP=2.46D-04 DE=-5.51D-06 OVMax= 0.00D+00

 Cycle   7  Pass 1  IDiag  1:
 E= -602.050716257327     Delta-E=       -0.000000391015 Rises=F Damp=F
 DIIS: error= 6.25D-06 at cycle   7 NSaved=   7.
 NSaved= 7 IEnMin= 7 EnMin= -602.050716257327     IErMin= 7 ErrMin= 6.25D-06
 ErrMax= 6.25D-06 EMaxC= 1.00D-01 BMatC= 4.11D-09 BMatP= 1.59D-07
 IDIUse=1 WtCom= 1.00D+00 WtEn= 0.00D+00
 Coeff-Com: -0.267D-04-0.295D-03 0.194D-02 0.480D-02-0.434D-01-0.294D-01
 Coeff-Com:  0.107D+01
 Coeff:     -0.267D-04-0.295D-03 0.194D-02 0.480D-02-0.434D-01-0.294D-01
 Coeff:      0.107D+01
 Gap=     0.855 Goal=   None    Shift=    0.000
 RMSDP=2.51D-06 MaxDP=2.36D-05 DE=-3.91D-07 OVMax= 0.00D+00

 Cycle   8  Pass 1  IDiag  1:
 E= -602.050716266764     Delta-E=       -0.000000009436 Rises=F Damp=F
 DIIS: error= 1.32D-06 at cycle   8 NSaved=   8.
 NSaved= 8 IEnMin= 8 EnMin= -602.050716266764     IErMin= 8 ErrMin= 1.32D-06
 ErrMax= 1.32D-06 EMaxC= 1.00D-01 BMatC= 2.11D-10 BMatP= 4.11D-09
 IDIUse=1 WtCom= 1.00D+00 WtEn= 0.00D+00
 Coeff-Com:  0.843D-05-0.159D-03-0.643D-03 0.306D-02 0.908D-02-0.400D-01
 Coeff-Com: -0.177D+00 0.121D+01
 Coeff:      0.843D-05-0.159D-03-0.643D-03 0.306D-02 0.908D-02-0.400D-01
 Coeff:     -0.177D+00 0.121D+01
 Gap=     0.855 Goal=   None    Shift=    0.000
 RMSDP=5.98D-07 MaxDP=7.14D-06 DE=-9.44D-09 OVMax= 0.00D+00

 Cycle   9  Pass 1  IDiag  1:
 E= -602.050716267291     Delta-E=       -0.000000000527 Rises=F Damp=F
 DIIS: error= 3.49D-07 at cycle   9 NSaved=   9.
 NSaved= 9 IEnMin= 9 EnMin= -602.050716267291     IErMin= 9 ErrMin= 3.49D-07
 ErrMax= 3.49D-07 EMaxC= 1.00D-01 BMatC= 8.46D-12 BMatP= 2.11D-10
 IDIUse=1 WtCom= 1.00D+00 WtEn= 0.00D+00
 Coeff-Com:  0.171D-05 0.117D-04-0.118D-03-0.177D-03 0.248D-02 0.461D-03
 Coeff-Com: -0.562D-01 0.119D-01 0.104D+01
 Coeff:      0.171D-05 0.117D-04-0.118D-03-0.177D-03 0.248D-02 0.461D-03
 Coeff:     -0.562D-01 0.119D-01 0.104D+01
 Gap=     0.855 Goal=   None    Shift=    0.000
 RMSDP=1.18D-07 MaxDP=1.15D-06 DE=-5.27D-10 OVMax= 0.00D+00

 Cycle  10  Pass 1  IDiag  1:
 E= -602.050716267308     Delta-E=       -0.000000000018 Rises=F Damp=F
 DIIS: error= 5.58D-08 at cycle  10 NSaved=  10.
 NSaved=10 IEnMin=10 EnMin= -602.050716267308     IErMin=10 ErrMin= 5.58D-08
 ErrMax= 5.58D-08 EMaxC= 1.00D-01 BMatC= 3.78D-13 BMatP= 8.46D-12
 IDIUse=1 WtCom= 1.00D+00 WtEn= 0.00D+00
 Coeff-Com: -0.703D-06 0.288D-05 0.543D-04-0.726D-04-0.946D-03 0.126D-02
 Coeff-Com:  0.212D-01-0.498D-01-0.251D+00 0.128D+01
 Coeff:     -0.703D-06 0.288D-05 0.543D-04-0.726D-04-0.946D-03 0.126D-02
 Coeff:      0.212D-01-0.498D-01-0.251D+00 0.128D+01
 Gap=     0.855 Goal=   None    Shift=    0.000
 RMSDP=2.70D-08 MaxDP=2.44D-07 DE=-1.80D-11 OVMax= 0.00D+00

 Cycle  11  Pass 1  IDiag  1:
 E= -602.050716267308     Delta-E=        0.000000000000 Rises=F Damp=F
 DIIS: error= 1.33D-08 at cycle  11 NSaved=  11.
 NSaved=11 IEnMin=10 EnMin= -602.050716267308     IErMin=11 ErrMin= 1.33D-08
 ErrMax= 1.33D-08 EMaxC= 1.00D-01 BMatC= 1.09D-14 BMatP= 3.78D-13
 IDIUse=1 WtCom= 1.00D+00 WtEn= 0.00D+00
 Coeff-Com: -0.760D-08-0.537D-06 0.118D-06 0.971D-05-0.940D-05-0.100D-03
 Coeff-Com:  0.175D-03 0.305D-02-0.124D-01-0.939D-01 0.110D+01
 Coeff:     -0.760D-08-0.537D-06 0.118D-06 0.971D-05-0.940D-05-0.100D-03
 Coeff:      0.175D-03 0.305D-02-0.124D-01-0.939D-01 0.110D+01
 Gap=     0.855 Goal=   None    Shift=    0.000
 RMSDP=4.12D-09 MaxDP=3.92D-08 DE= 2.27D-13 OVMax= 0.00D+00

 SCF Done:  E(RHF) =  -602.050716267     A.U. after   11 cycles
             Convg  =    0.4119D-08             -V/T =  2.0049
 KE= 5.991348974444D+02 PE=-2.661659139166D+03 EE= 8.449991610367D+02
 Leave Link  502 at Wed Dec  4 09:57:50 2019, MaxMem=  805306368 cpu:       1.6
 (Enter /home/programs/G09_64/g09/l601.exe)
 Copying SCF densities to generalized density rwf, IOpCl= 0 IROHF=0.

 **********************************************************************

            Population analysis using the SCF density.

 **********************************************************************

 Orbital symmetries:
       Occupied  (A) (A) (A) (A) (A) (A) (A) (A) (A) (A) (A) (A)
                 (A) (A) (A) (A) (A) (A) (A) (A) (A) (A) (A) (A)
                 (A) (A) (A) (A) (A) (A) (A) (A) (A) (A) (A) (A)
                 (A) (A) (A) (A) (A) (A) (A)
       Virtual   (A) (A) (A) (A) (A) (A) (A) (A) (A) (A) (A) (A)
                 (A) (A) (A) (A) (A) (A) (A) (A)
 The electronic state is 1-A.
 Alpha  occ. eigenvalues --  -20.22743 -20.21564 -20.20969 -20.20695 -20.20638
 Alpha  occ. eigenvalues --  -20.19926 -20.19388 -11.09284 -11.03844  -1.30611
 Alpha  occ. eigenvalues --   -1.27668  -1.26859  -1.26261  -1.24448  -1.21729
 Alpha  occ. eigenvalues --   -1.20668  -0.97101  -0.81087  -0.65615  -0.64716
 Alpha  occ. eigenvalues --   -0.63925  -0.62633  -0.62153  -0.61812  -0.61667
 Alpha  occ. eigenvalues --   -0.58909  -0.55754  -0.51571  -0.50670  -0.49416
 Alpha  occ. eigenvalues --   -0.48665  -0.46798  -0.44936  -0.43904  -0.41810
 Alpha  occ. eigenvalues --   -0.39450  -0.35615  -0.35034  -0.34624  -0.33735
 Alpha  occ. eigenvalues --   -0.33087  -0.32654  -0.31661
 Alpha virt. eigenvalues --    0.53837   0.58644   0.61640   0.63547   0.63943
 Alpha virt. eigenvalues --    0.64995   0.67539   0.70252   0.71966   0.72385
 Alpha virt. eigenvalues --    0.76204   0.77665   0.78148   0.80229   0.80640
 Alpha virt. eigenvalues --    0.82210   0.82856   0.84450   0.86547   0.86854
          Condensed to atoms (all electrons):
              1          2          3          4          5          6
     1  O    7.943002   0.273842  -0.019822   0.233523   0.000636  -0.000763
     2  C    0.273842   4.688344   0.357458  -0.026662  -0.018854  -0.021512
     3  C   -0.019822   0.357458   4.751882  -0.001998   0.383108   0.385525
     4  H    0.233523  -0.026662  -0.001998   0.474993  -0.000008   0.000031
     5  H    0.000636  -0.018854   0.383108  -0.000008   0.617715  -0.020915
     6  H   -0.000763  -0.021512   0.385525   0.000031  -0.020915   0.616067
     7  H   -0.001141  -0.021519   0.385770   0.000403  -0.020808  -0.021906
     8  H   -0.017239   0.377779  -0.025252  -0.000864  -0.001648   0.001945
     9  H   -0.016884   0.382167  -0.023738   0.002080  -0.001582  -0.002625
    10  O   -0.007333   0.000142  -0.000003   0.000251   0.000000  -0.000024
    11  H    0.024418  -0.002030  -0.000106  -0.004166  -0.000002   0.000065
    12  H    0.000458  -0.000013   0.000000   0.000007   0.000000   0.000001
    13  O   -0.000014   0.000001   0.000000   0.000002   0.000000   0.000000
    14  H    0.000005  -0.000001   0.000000   0.000000   0.000000   0.000000
    15  H    0.000159  -0.000004   0.000000  -0.000002   0.000000   0.000000
    16  O   -0.007779   0.000165  -0.000001   0.000337   0.000000   0.000000
    17  H    0.000528  -0.000004   0.000000  -0.000039   0.000000   0.000000
    18  H    0.027699  -0.002750   0.000123  -0.003322  -0.000003   0.000001
    19  O   -0.000003   0.000000   0.000000   0.000005   0.000000   0.000000
    20  H    0.000000   0.000000   0.000000  -0.000001   0.000000   0.000000
    21  H    0.000003   0.000000   0.000000   0.000012   0.000000   0.000000
    22  O   -0.020456   0.000515  -0.000020   0.065130   0.000001  -0.000003
    23  H    0.000582   0.000001   0.000005  -0.008337   0.000000   0.000000
    24  H    0.000948  -0.000037   0.000002  -0.007496   0.000000   0.000000
    25  O   -0.000039   0.000000   0.000000   0.000214   0.000000   0.000000
    26  H    0.000267  -0.000002   0.000001  -0.000055   0.000000   0.000001
    27  H    0.000003   0.000000   0.000000   0.000000   0.000000   0.000000
              7          8          9         10         11         12
     1  O   -0.001141  -0.017239  -0.016884  -0.007333   0.024418   0.000458
     2  C   -0.021519   0.377779   0.382167   0.000142  -0.002030  -0.000013
     3  C    0.385770  -0.025252  -0.023738  -0.000003  -0.000106   0.000000
     4  H    0.000403  -0.000864   0.002080   0.000251  -0.004166   0.000007
     5  H   -0.020808  -0.001648  -0.001582   0.000000  -0.000002   0.000000
     6  H   -0.021906   0.001945  -0.002625  -0.000024   0.000065   0.000001
     7  H    0.614206  -0.002524   0.001878   0.000000  -0.000001   0.000000
     8  H   -0.002524   0.642734  -0.026664  -0.000005   0.000155   0.000001
     9  H    0.001878  -0.026664   0.626201   0.000023  -0.000414  -0.000001
    10  O    0.000000  -0.000005   0.000023   7.921727   0.252886   0.225672
    11  H   -0.000001   0.000155  -0.000414   0.252886   0.552654  -0.031030
    12  H    0.000000   0.000001  -0.000001   0.225672  -0.031030   0.485081
    13  O    0.000000   0.000000   0.000000  -0.023634   0.001313   0.073571
    14  H    0.000000   0.000000   0.000000   0.001101  -0.000085  -0.008573
    15  H    0.000000   0.000000   0.000000   0.000627  -0.000049  -0.008569
    16  O    0.000000   0.000012   0.000023  -0.000063  -0.000068   0.000322
    17  H    0.000000   0.000000  -0.000001   0.000014   0.000027   0.000010
    18  H    0.000001  -0.000221  -0.000351  -0.000099  -0.000678   0.000019
    19  O    0.000000   0.000000   0.000000  -0.000006   0.000002   0.000007
    20  H    0.000000   0.000000   0.000000   0.000002   0.000000  -0.000001
    21  H    0.000000   0.000000   0.000000   0.000190  -0.000001  -0.000023
    22  O   -0.000040   0.000014  -0.000014  -0.000026   0.000067   0.000003
    23  H    0.000000   0.000000   0.000001   0.000183  -0.000079   0.000008
    24  H    0.000005   0.000001   0.000002   0.000003   0.000004   0.000000
    25  O    0.000000   0.000000   0.000000  -0.033404   0.001194   0.000981
    26  H    0.000000   0.000000   0.000000   0.119416  -0.015921  -0.010644
    27  H    0.000000   0.000000   0.000000   0.001516   0.000010  -0.000038
             13         14         15         16         17         18
     1  O   -0.000014   0.000005   0.000159  -0.007779   0.000528   0.027699
     2  C    0.000001  -0.000001  -0.000004   0.000165  -0.000004  -0.002750
     3  C    0.000000   0.000000   0.000000  -0.000001   0.000000   0.000123
     4  H    0.000002   0.000000  -0.000002   0.000337  -0.000039  -0.003322
     5  H    0.000000   0.000000   0.000000   0.000000   0.000000  -0.000003
     6  H    0.000000   0.000000   0.000000   0.000000   0.000000   0.000001
     7  H    0.000000   0.000000   0.000000   0.000000   0.000000   0.000001
     8  H    0.000000   0.000000   0.000000   0.000012   0.000000  -0.000221
     9  H    0.000000   0.000000   0.000000   0.000023  -0.000001  -0.000351
    10  O   -0.023634   0.001101   0.000627  -0.000063   0.000014  -0.000099
    11  H    0.001313  -0.000085  -0.000049  -0.000068   0.000027  -0.000678
    12  H    0.073571  -0.008573  -0.008569   0.000322   0.000010   0.000019
    13  O    7.931688   0.255430   0.221217  -0.024860   0.000791   0.000966
    14  H    0.255430   0.627690  -0.032294   0.001305   0.000007  -0.000050
    15  H    0.221217  -0.032294   0.490562   0.077652  -0.009247  -0.009930
    16  O   -0.024860   0.001305   0.077652   7.922158   0.246877   0.252175
    17  H    0.000791   0.000007  -0.009247   0.246877   0.520192  -0.034947
    18  H    0.000966  -0.000050  -0.009930   0.252175  -0.034947   0.550026
    19  O   -0.000008   0.000001   0.000219  -0.013183   0.041705   0.000831
    20  H    0.000005   0.000000  -0.000020   0.000645  -0.005255  -0.000007
    21  H    0.000005   0.000000  -0.000001   0.000558  -0.005227  -0.000065
    22  O    0.000000   0.000000   0.000000  -0.000002   0.000006   0.000085
    23  H    0.000000   0.000000   0.000000   0.000000   0.000009   0.000005
    24  H    0.000000   0.000000   0.000000   0.000001   0.000001  -0.000006
    25  O   -0.000007   0.000001   0.000002  -0.000007   0.000110   0.000003
    26  H    0.000384  -0.000003  -0.000001   0.000012  -0.000004   0.000025
    27  H    0.000001   0.000000   0.000000   0.000001  -0.000002   0.000000
             19         20         21         22         23         24
     1  O   -0.000003   0.000000   0.000003  -0.020456   0.000582   0.000948
     2  C    0.000000   0.000000   0.000000   0.000515   0.000001  -0.000037
     3  C    0.000000   0.000000   0.000000  -0.000020   0.000005   0.000002
     4  H    0.000005  -0.000001   0.000012   0.065130  -0.008337  -0.007496
     5  H    0.000000   0.000000   0.000000   0.000001   0.000000   0.000000
     6  H    0.000000   0.000000   0.000000  -0.000003   0.000000   0.000000
     7  H    0.000000   0.000000   0.000000  -0.000040   0.000000   0.000005
     8  H    0.000000   0.000000   0.000000   0.000014   0.000000   0.000001
     9  H    0.000000   0.000000   0.000000  -0.000014   0.000001   0.000002
    10  O   -0.000006   0.000002   0.000190  -0.000026   0.000183   0.000003
    11  H    0.000002   0.000000  -0.000001   0.000067  -0.000079   0.000004
    12  H    0.000007  -0.000001  -0.000023   0.000003   0.000008   0.000000
    13  O   -0.000008   0.000005   0.000005   0.000000   0.000000   0.000000
    14  H    0.000001   0.000000   0.000000   0.000000   0.000000   0.000000
    15  H    0.000219  -0.000020  -0.000001   0.000000   0.000000   0.000000
    16  O   -0.013183   0.000645   0.000558  -0.000002   0.000000   0.000001
    17  H    0.041705  -0.005255  -0.005227   0.000006   0.000009   0.000001
    18  H    0.000831  -0.000007  -0.000065   0.000085   0.000005  -0.000006
    19  O    7.902814   0.256571   0.243190  -0.000012  -0.000064   0.000015
    20  H    0.256571   0.623904  -0.037563   0.000002   0.000007  -0.000002
    21  H    0.243190  -0.037563   0.516638  -0.000056  -0.001685   0.000013
    22  O   -0.000012   0.000002  -0.000056   7.900704   0.235742   0.257131
    23  H   -0.000064   0.000007  -0.001685   0.235742   0.499324  -0.035396
    24  H    0.000015  -0.000002   0.000013   0.257131  -0.035396   0.616270
    25  O   -0.014540   0.000894   0.045303  -0.018988   0.057895   0.001095
    26  H    0.000380  -0.000019  -0.003522   0.000333  -0.005381   0.000013
    27  H    0.000689  -0.000094  -0.004291   0.000815  -0.005813  -0.000052
             25         26         27
     1  O   -0.000039   0.000267   0.000003
     2  C    0.000000  -0.000002   0.000000
     3  C    0.000000   0.000001   0.000000
     4  H    0.000214  -0.000055   0.000000
     5  H    0.000000   0.000000   0.000000
     6  H    0.000000   0.000001   0.000000
     7  H    0.000000   0.000000   0.000000
     8  H    0.000000   0.000000   0.000000
     9  H    0.000000   0.000000   0.000000
    10  O   -0.033404   0.119416   0.001516
    11  H    0.001194  -0.015921   0.000010
    12  H    0.000981  -0.010644  -0.000038
    13  O   -0.000007   0.000384   0.000001
    14  H    0.000001  -0.000003   0.000000
    15  H    0.000002  -0.000001   0.000000
    16  O   -0.000007   0.000012   0.000001
    17  H    0.000110  -0.000004  -0.000002
    18  H    0.000003   0.000025   0.000000
    19  O   -0.014540   0.000380   0.000689
    20  H    0.000894  -0.000019  -0.000094
    21  H    0.045303  -0.003522  -0.004291
    22  O   -0.018988   0.000333   0.000815
    23  H    0.057895  -0.005381  -0.005813
    24  H    0.001095   0.000013  -0.000052
    25  O    7.982503   0.187353   0.256109
    26  H    0.187353   0.464124  -0.024477
    27  H    0.256109  -0.024477   0.612647
 Mulliken atomic charges:
              1
     1  O   -0.414601
     2  C    0.012971
     3  C   -0.192935
     4  H    0.275963
     5  H    0.062360
     6  H    0.064114
     7  H    0.065675
     8  H    0.051775
     9  H    0.059898
    10  O   -0.459158
    11  H    0.221835
    12  H    0.272750
    13  O   -0.436851
    14  H    0.155466
    15  H    0.269680
    16  O   -0.456280
    17  H    0.244448
    18  H    0.220470
    19  O   -0.418611
    20  H    0.160931
    21  H    0.246523
    22  O   -0.420928
    23  H    0.262994
    24  H    0.167485
    25  O   -0.466671
    26  H    0.287718
    27  H    0.162977
 Sum of Mulliken atomic charges =   0.00000
 Mulliken charges with hydrogens summed into heavy atoms:
              1
     1  O   -0.138638
     2  C    0.124645
     3  C   -0.000785
    10  O    0.035427
    13  O   -0.011705
    16  O    0.008638
    19  O   -0.011157
    22  O    0.009551
    25  O   -0.015976
 Sum of Mulliken charges with hydrogens summed into heavy atoms =   0.00000
 Electronic spatial extent (au):  <R**2>=           2046.2241
 Charge=              0.0000 electrons
 Dipole moment (field-independent basis, Debye):
    X=              0.2457    Y=              0.8593    Z=              0.4395  Tot=              0.9959
 Quadrupole moment (field-independent basis, Debye-Ang):
   XX=            -48.8643   YY=            -49.5205   ZZ=            -57.0348
   XY=             -6.3019   XZ=             -3.8605   YZ=              0.0061
 Traceless Quadrupole moment (field-independent basis, Debye-Ang):
   XX=              2.9422   YY=              2.2860   ZZ=             -5.2282
   XY=             -6.3019   XZ=             -3.8605   YZ=              0.0061
 Octapole moment (field-independent basis, Debye-Ang**2):
  XXX=            -42.0657  YYY=             -4.1177  ZZZ=              4.4294  XYY=            -12.9990
  XXY=              6.9329  XXZ=              1.1052  XZZ=             -6.1375  YZZ=             13.1550
  YYZ=              5.3816  XYZ=             -7.8970
 Hexadecapole moment (field-independent basis, Debye-Ang**3):
 XXXX=          -1175.3949 YYYY=           -512.8495 ZZZZ=           -357.0388 XXXY=            -29.4217
 XXXZ=              0.4558 YYYX=            -10.4707 YYYZ=            -16.7799 ZZZX=            -17.2718
 ZZZY=              3.7575 XXYY=           -323.2494 XXZZ=           -269.9088 YYZZ=           -145.6249
 XXYZ=             18.6482 YYXZ=            -13.5607 ZZXY=             -4.7902
 N-N= 6.154743644173D+02 E-N=-2.661659139270D+03  KE= 5.991348974444D+02
 No NMR shielding tensors so no spin-rotation constants.
 Leave Link  601 at Wed Dec  4 09:57:50 2019, MaxMem=  805306368 cpu:       0.9
 (Enter /home/programs/G09_64/g09/l701.exe)
 Compute integral first derivatives.
 ... and contract with generalized density number  0.
 Leave Link  701 at Wed Dec  4 09:57:50 2019, MaxMem=  805306368 cpu:       0.8
 (Enter /home/programs/G09_64/g09/l702.exe)
 L702 exits ... SP integral derivatives will be done elsewhere.
 Leave Link  702 at Wed Dec  4 09:57:50 2019, MaxMem=  805306368 cpu:       0.2
 (Enter /home/programs/G09_64/g09/l703.exe)
 Compute integral first derivatives, UseDBF=F ICtDFT=           0.
 Integral derivatives from FoFDir, PRISM(SPDF).
 Calling FoFJK, ICntrl=      2127 FMM=F ISym2X=0 I1Cent= 0 IOpClX= 0 NMat=1 NMatS=1 NMatT=0.
 FoFCou: FMM=F IPFlag=           0 FMFlag=      100000 FMFlg1=         800
         NFxFlg=           0 DoJE=F BraDBF=F KetDBF=F FulRan=T
         Omega=  0.000000  0.000000  1.000000  0.000000  0.000000 ICntrl=    2127 IOpCl=  0
         NMat0=    1 NMatS0=    1 NMatT0=    0 NMatD0=    1 NMtDS0=    0 NMtDT0=    0
         I1Cent=           0 NGrid=           0.
 Symmetry not used in FoFCou.
 Leave Link  703 at Wed Dec  4 09:57:50 2019, MaxMem=  805306368 cpu:       1.5
 (Enter /home/programs/G09_64/g09/l716.exe)
 Dipole        = 9.66563541D-02 3.38056524D-01 1.72897196D-01
 ***** Axes restored to original set *****
 Cartesian Forces:  Max     0.053772896 RMS     0.008313364
 Leave Link  716 at Wed Dec  4 09:57:50 2019, MaxMem=  805306368 cpu:       0.2
 (Enter /home/programs/G09_64/g09/l120.exe)
 SvSCFP is copying densities from files   528 and   530 to   603.
 ONIOM: saving gridpoint  3
 ONIOM: restoring gridpoint 17
 ONIOM: generating point  2 -- high level on model system.
 Leave Link  120 at Wed Dec  4 09:57:50 2019, MaxMem=  805306368 cpu:       0.3
 (Enter /home/programs/G09_64/g09/l301.exe)
 Standard basis: 3-21G (6D, 7F)
 Ernie: Thresh=  0.10000D-02 Tol=  0.10000D-05 Strict=F.
 There are    39 symmetry adapted basis functions of A   symmetry.
 Integral buffers will be    131072 words long.
 Raffenetti 1 integral format.
 Two-electron integral symmetry is turned on.
    39 basis functions,    63 primitive gaussians,    39 cartesian basis functions
    13 alpha electrons       13 beta electrons
       nuclear repulsion energy        81.5719775272 Hartrees.
 IExCor=    0 DFT=F Ex=HF Corr=None ExCW=0 ScaHFX=  1.000000
 ScaDFX=  1.000000  1.000000  1.000000  1.000000 ScalE2=  1.000000  1.000000
 IRadAn=      0 IRanWt=     -1 IRanGd=            0 ICorTp=0
 NAtoms=   27 NActive=    9 NUniq=    9 SFac= 1.00D+00 NAtFMM=   50 NAOKFM=F Big=F
 Leave Link  301 at Wed Dec  4 09:57:50 2019, MaxMem=  805306368 cpu:       0.3
 (Enter /home/programs/G09_64/g09/l302.exe)
 NPDir=0 NMtPBC=     1 NCelOv=     1 NCel=       1 NClECP=     1 NCelD=      1
         NCelK=      1 NCelE2=     1 NClLst=     1 CellRange=     0.0.
 One-electron integrals computed using PRISM.
 NBasis=    39 RedAO= T  NBF=    39
 NBsUse=    39 1.00D-06 NBFU=    39
 Leave Link  302 at Wed Dec  4 09:57:50 2019, MaxMem=  805306368 cpu:       0.9
 (Enter /home/programs/G09_64/g09/l303.exe)
 DipDrv:  MaxL=1.
 Leave Link  303 at Wed Dec  4 09:57:50 2019, MaxMem=  805306368 cpu:       0.2
 (Enter /home/programs/G09_64/g09/l401.exe)
 Harris functional with IExCor=  205 diagonalized for initial guess.
 ExpMin= 1.83D-01 ExpMax= 3.22D+02 ExpMxC= 3.22D+02 IAcc=1 IRadAn=         1 AccDes= 0.00D+00
 HarFok:  IExCor=  205 AccDes= 0.00D+00 IRadAn=         1 IDoV= 1
 ScaDFX=  1.000000  1.000000  1.000000  1.000000
 FoFCou: FMM=F IPFlag=           0 FMFlag=      100000 FMFlg1=           0
         NFxFlg=           0 DoJE=T BraDBF=F KetDBF=T FulRan=T
         Omega=  0.000000  0.000000  1.000000  0.000000  0.000000 ICntrl=     500 IOpCl=  0
         NMat0=    1 NMatS0=    1 NMatT0=    0 NMatD0=    1 NMtDS0=    0 NMtDT0=    0
         I1Cent=           4 NGrid=           0.
 Petite list used in FoFCou.
 Harris En= -153.490764906634    
 Initial guess orbital symmetries:
       Occupied  (A) (A) (A) (A) (A) (A) (A) (A) (A) (A) (A) (A)
                 (A)
       Virtual   (A) (A) (A) (A) (A) (A) (A) (A) (A) (A) (A) (A)
                 (A) (A) (A) (A) (A) (A) (A) (A) (A) (A) (A) (A)
                 (A) (A)
 The electronic state of the initial guess is 1-A.
 Leave Link  401 at Wed Dec  4 09:57:51 2019, MaxMem=  805306368 cpu:       1.0
 (Enter /home/programs/G09_64/g09/l502.exe)
 Closed shell SCF:
 Requested convergence on RMS density matrix=1.00D-08 within 128 cycles.
 Requested convergence on MAX density matrix=1.00D-06.
 Requested convergence on             energy=1.00D-06.
 No special actions if energy rises.
 Using DIIS extrapolation, IDIIS=  1040.
 Integral symmetry usage will be decided dynamically.
 Keep R1 ints in memory in canonical form, NReq=1127973.
 IEnd=       23369 IEndB=       23369 NGot=   805306368 MDV=   804996582
 LenX=   804996582 LenY=   804994620
 Symmetry not used in FoFDir.
 MinBra= 0 MaxBra= 1 Meth= 1.
 IRaf=       0 NMat=   1 IRICut=       1 DoRegI=T DoRafI=F ISym2E= 0 JSym2E=0.

 Cycle   1  Pass 1  IDiag  1:
 E= -153.080649357250    
 DIIS: error= 4.94D-02 at cycle   1 NSaved=   1.
 NSaved= 1 IEnMin= 1 EnMin= -153.080649357250     IErMin= 1 ErrMin= 4.94D-02
 ErrMax= 4.94D-02 EMaxC= 1.00D-01 BMatC= 1.81D-01 BMatP= 1.81D-01
 IDIUse=3 WtCom= 5.06D-01 WtEn= 4.94D-01
 Coeff-Com:  0.100D+01
 Coeff-En:   0.100D+01
 Coeff:      0.100D+01
 Gap=     0.651 Goal=   None    Shift=    0.000
 GapD=    0.651 DampG=2.000 DampE=0.500 DampFc=1.0000 IDamp=-1.
 RMSDP=1.06D-02 MaxDP=8.67D-02              OVMax= 9.99D-02

 Cycle   2  Pass 1  IDiag  1:
 E= -153.197127187433     Delta-E=       -0.116477830182 Rises=F Damp=F
 DIIS: error= 1.80D-02 at cycle   2 NSaved=   2.
 NSaved= 2 IEnMin= 2 EnMin= -153.197127187433     IErMin= 2 ErrMin= 1.80D-02
 ErrMax= 1.80D-02 EMaxC= 1.00D-01 BMatC= 2.56D-02 BMatP= 1.81D-01
 IDIUse=3 WtCom= 8.20D-01 WtEn= 1.80D-01
 Coeff-Com:  0.234D+00 0.766D+00
 Coeff-En:   0.000D+00 0.100D+01
 Coeff:      0.192D+00 0.808D+00
 Gap=     0.689 Goal=   None    Shift=    0.000
 RMSDP=3.30D-03 MaxDP=2.16D-02 DE=-1.16D-01 OVMax= 2.44D-02

 Cycle   3  Pass 1  IDiag  1:
 E= -153.215848128517     Delta-E=       -0.018720941084 Rises=F Damp=F
 DIIS: error= 3.75D-03 at cycle   3 NSaved=   3.
 NSaved= 3 IEnMin= 3 EnMin= -153.215848128517     IErMin= 3 ErrMin= 3.75D-03
 ErrMax= 3.75D-03 EMaxC= 1.00D-01 BMatC= 6.22D-04 BMatP= 2.56D-02
 IDIUse=3 WtCom= 9.63D-01 WtEn= 3.75D-02
 Coeff-Com: -0.188D-01 0.884D-01 0.930D+00
 Coeff-En:   0.000D+00 0.000D+00 0.100D+01
 Coeff:     -0.181D-01 0.851D-01 0.933D+00
 Gap=     0.674 Goal=   None    Shift=    0.000
 RMSDP=5.14D-04 MaxDP=5.07D-03 DE=-1.87D-02 OVMax= 5.09D-03

 Cycle   4  Pass 1  IDiag  1:
 E= -153.216370264458     Delta-E=       -0.000522135941 Rises=F Damp=F
 DIIS: error= 1.21D-03 at cycle   4 NSaved=   4.
 NSaved= 4 IEnMin= 4 EnMin= -153.216370264458     IErMin= 4 ErrMin= 1.21D-03
 ErrMax= 1.21D-03 EMaxC= 1.00D-01 BMatC= 3.63D-05 BMatP= 6.22D-04
 IDIUse=3 WtCom= 9.88D-01 WtEn= 1.21D-02
 Coeff-Com: -0.771D-02 0.494D-02 0.235D+00 0.768D+00
 Coeff-En:   0.000D+00 0.000D+00 0.000D+00 0.100D+01
 Coeff:     -0.762D-02 0.488D-02 0.232D+00 0.771D+00
 Gap=     0.676 Goal=   None    Shift=    0.000
 RMSDP=1.38D-04 MaxDP=1.13D-03 DE=-5.22D-04 OVMax= 1.05D-03

 Cycle   5  Pass 1  IDiag  1:
 E= -153.216398718571     Delta-E=       -0.000028454113 Rises=F Damp=F
 DIIS: error= 2.18D-04 at cycle   5 NSaved=   5.
 NSaved= 5 IEnMin= 5 EnMin= -153.216398718571     IErMin= 5 ErrMin= 2.18D-04
 ErrMax= 2.18D-04 EMaxC= 1.00D-01 BMatC= 1.86D-06 BMatP= 3.63D-05
 IDIUse=3 WtCom= 9.98D-01 WtEn= 2.18D-03
 Coeff-Com:  0.287D-02-0.120D-01-0.122D+00-0.721D-01 0.120D+01
 Coeff-En:   0.000D+00 0.000D+00 0.000D+00 0.000D+00 0.100D+01
 Coeff:      0.287D-02-0.120D-01-0.122D+00-0.719D-01 0.120D+01
 Gap=     0.676 Goal=   None    Shift=    0.000
 RMSDP=6.89D-05 MaxDP=6.48D-04 DE=-2.85D-05 OVMax= 5.52D-04

 Cycle   6  Pass 1  IDiag  1:
 E= -153.216401931074     Delta-E=       -0.000003212503 Rises=F Damp=F
 DIIS: error= 3.52D-05 at cycle   6 NSaved=   6.
 NSaved= 6 IEnMin= 6 EnMin= -153.216401931074     IErMin= 6 ErrMin= 3.52D-05
 ErrMax= 3.52D-05 EMaxC= 1.00D-01 BMatC= 2.43D-08 BMatP= 1.86D-06
 IDIUse=1 WtCom= 1.00D+00 WtEn= 0.00D+00
 Coeff-Com: -0.569D-03 0.272D-02 0.263D-01-0.144D-02-0.280D+00 0.125D+01
 Coeff:     -0.569D-03 0.272D-02 0.263D-01-0.144D-02-0.280D+00 0.125D+01
 Gap=     0.676 Goal=   None    Shift=    0.000
 RMSDP=9.83D-06 MaxDP=6.71D-05 DE=-3.21D-06 OVMax= 9.49D-05

 Cycle   7  Pass 1  IDiag  1:
 E= -153.216401985550     Delta-E=       -0.000000054476 Rises=F Damp=F
 DIIS: error= 6.14D-06 at cycle   7 NSaved=   7.
 NSaved= 7 IEnMin= 7 EnMin= -153.216401985550     IErMin= 7 ErrMin= 6.14D-06
 ErrMax= 6.14D-06 EMaxC= 1.00D-01 BMatC= 1.78D-09 BMatP= 2.43D-08
 IDIUse=1 WtCom= 1.00D+00 WtEn= 0.00D+00
 Coeff-Com: -0.232D-03 0.104D-02 0.104D-01 0.313D-02-0.103D+00 0.168D+00
 Coeff-Com:  0.921D+00
 Coeff:     -0.232D-03 0.104D-02 0.104D-01 0.313D-02-0.103D+00 0.168D+00
 Coeff:      0.921D+00
 Gap=     0.676 Goal=   None    Shift=    0.000
 RMSDP=1.94D-06 MaxDP=1.30D-05 DE=-5.45D-08 OVMax= 2.47D-05

 Cycle   8  Pass 1  IDiag  1:
 E= -153.216401988967     Delta-E=       -0.000000003417 Rises=F Damp=F
 DIIS: error= 2.41D-06 at cycle   8 NSaved=   8.
 NSaved= 8 IEnMin= 8 EnMin= -153.216401988967     IErMin= 8 ErrMin= 2.41D-06
 ErrMax= 2.41D-06 EMaxC= 1.00D-01 BMatC= 1.49D-10 BMatP= 1.78D-09
 IDIUse=1 WtCom= 1.00D+00 WtEn= 0.00D+00
 Coeff-Com:  0.868D-04-0.413D-03-0.405D-02-0.463D-03 0.426D-01-0.146D+00
 Coeff-Com: -0.138D+00 0.125D+01
 Coeff:      0.868D-04-0.413D-03-0.405D-02-0.463D-03 0.426D-01-0.146D+00
 Coeff:     -0.138D+00 0.125D+01
 Gap=     0.676 Goal=   None    Shift=    0.000
 RMSDP=8.88D-07 MaxDP=7.09D-06 DE=-3.42D-09 OVMax= 1.24D-05

 Cycle   9  Pass 1  IDiag  1:
 E= -153.216401989394     Delta-E=       -0.000000000426 Rises=F Damp=F
 DIIS: error= 5.33D-07 at cycle   9 NSaved=   9.
 NSaved= 9 IEnMin= 9 EnMin= -153.216401989394     IErMin= 9 ErrMin= 5.33D-07
 ErrMax= 5.33D-07 EMaxC= 1.00D-01 BMatC= 6.34D-12 BMatP= 1.49D-10
 IDIUse=1 WtCom= 1.00D+00 WtEn= 0.00D+00
 Coeff-Com: -0.185D-04 0.890D-04 0.875D-03-0.988D-04-0.927D-02 0.407D-01
 Coeff-Com:  0.897D-02-0.417D+00 0.138D+01
 Coeff:     -0.185D-04 0.890D-04 0.875D-03-0.988D-04-0.927D-02 0.407D-01
 Coeff:      0.897D-02-0.417D+00 0.138D+01
 Gap=     0.676 Goal=   None    Shift=    0.000
 RMSDP=1.74D-07 MaxDP=1.89D-06 DE=-4.26D-10 OVMax= 2.78D-06

 Cycle  10  Pass 1  IDiag  1:
 E= -153.216401989414     Delta-E=       -0.000000000020 Rises=F Damp=F
 DIIS: error= 9.65D-08 at cycle  10 NSaved=  10.
 NSaved=10 IEnMin=10 EnMin= -153.216401989414     IErMin=10 ErrMin= 9.65D-08
 ErrMax= 9.65D-08 EMaxC= 1.00D-01 BMatC= 2.06D-13 BMatP= 6.34D-12
 IDIUse=1 WtCom= 1.00D+00 WtEn= 0.00D+00
 Coeff-Com:  0.347D-05-0.168D-04-0.162D-03 0.570D-04 0.168D-02-0.861D-02
 Coeff-Com:  0.170D-02 0.949D-01-0.474D+00 0.138D+01
 Coeff:      0.347D-05-0.168D-04-0.162D-03 0.570D-04 0.168D-02-0.861D-02
 Coeff:      0.170D-02 0.949D-01-0.474D+00 0.138D+01
 Gap=     0.676 Goal=   None    Shift=    0.000
 RMSDP=3.80D-08 MaxDP=3.60D-07 DE=-1.98D-11 OVMax= 5.08D-07

 Cycle  11  Pass 1  IDiag  1:
 E= -153.216401989414     Delta-E=        0.000000000000 Rises=F Damp=F
 DIIS: error= 8.25D-09 at cycle  11 NSaved=  11.
 NSaved=11 IEnMin=11 EnMin= -153.216401989414     IErMin=11 ErrMin= 8.25D-09
 ErrMax= 8.25D-09 EMaxC= 1.00D-01 BMatC= 3.50D-15 BMatP= 2.06D-13
 IDIUse=1 WtCom= 1.00D+00 WtEn= 0.00D+00
 Coeff-Com: -0.652D-06 0.308D-05 0.303D-04-0.168D-04-0.312D-03 0.181D-02
 Coeff-Com: -0.817D-03-0.204D-01 0.118D+00-0.424D+00 0.133D+01
 Coeff:     -0.652D-06 0.308D-05 0.303D-04-0.168D-04-0.312D-03 0.181D-02
 Coeff:     -0.817D-03-0.204D-01 0.118D+00-0.424D+00 0.133D+01
 Gap=     0.676 Goal=   None    Shift=    0.000
 RMSDP=4.30D-09 MaxDP=2.58D-08 DE=-4.55D-13 OVMax= 4.09D-08

 SCF Done:  E(RHF) =  -153.216401989     A.U. after   11 cycles
             Convg  =    0.4296D-08             -V/T =  2.0027
 KE= 1.528041799221D+02 PE=-5.227837868303D+02 EE= 1.351912273917D+02
 Leave Link  502 at Wed Dec  4 09:57:51 2019, MaxMem=  805306368 cpu:       0.6
 (Enter /home/programs/G09_64/g09/l601.exe)
 Copying SCF densities to generalized density rwf, IOpCl= 0 IROHF=0.

 **********************************************************************

            Population analysis using the SCF density.

 **********************************************************************

 Orbital symmetries:
       Occupied  (A) (A) (A) (A) (A) (A) (A) (A) (A) (A) (A) (A)
                 (A)
       Virtual   (A) (A) (A) (A) (A) (A) (A) (A) (A) (A) (A) (A)
                 (A) (A) (A) (A) (A) (A) (A) (A) (A) (A) (A) (A)
                 (A) (A)
 The electronic state is 1-A.
 Alpha  occ. eigenvalues --  -20.42817 -11.21892 -11.15645  -1.32281  -1.01349
 Alpha  occ. eigenvalues --   -0.84703  -0.66362  -0.62649  -0.59606  -0.53384
 Alpha  occ. eigenvalues --   -0.52214  -0.44973  -0.41982
 Alpha virt. eigenvalues --    0.25649   0.29122   0.32708   0.33747   0.35047
 Alpha virt. eigenvalues --    0.37508   0.43691   0.45643   0.91225   0.95530
 Alpha virt. eigenvalues --    0.97887   1.02860   1.06243   1.10342   1.25041
 Alpha virt. eigenvalues --    1.30698   1.35338   1.36416   1.37611   1.42368
 Alpha virt. eigenvalues --    1.88519   1.94501   2.00300   2.22689   2.30766
 Alpha virt. eigenvalues --    3.35796
          Condensed to atoms (all electrons):
              1          2          3          4          5          6
     1  O    8.313736   0.235882  -0.053265   0.263970   0.002120   0.002014
     2  C    0.235882   5.019751   0.223263  -0.040947  -0.036587  -0.042799
     3  C   -0.053265   0.223263   5.478809  -0.002334   0.345078   0.372710
     4  H    0.263970  -0.040947  -0.002334   0.399158   0.000070  -0.000260
     5  H    0.002120  -0.036587   0.345078   0.000070   0.537336  -0.022338
     6  H    0.002014  -0.042799   0.372710  -0.000260  -0.022338   0.498067
     7  H   -0.000149  -0.044802   0.374410   0.003171  -0.023985  -0.027792
     8  H   -0.036312   0.362757  -0.059826  -0.001434   0.001870   0.003922
     9  H   -0.025626   0.378122  -0.049772   0.003508   0.000565  -0.003863
              7          8          9
     1  O   -0.000149  -0.036312  -0.025626
     2  C   -0.044802   0.362757   0.378122
     3  C    0.374410  -0.059826  -0.049772
     4  H    0.003171  -0.001434   0.003508
     5  H   -0.023985   0.001870   0.000565
     6  H   -0.027792   0.003922  -0.003863
     7  H    0.527376  -0.003967   0.003422
     8  H   -0.003967   0.591331  -0.041451
     9  H    0.003422  -0.041451   0.515743
 Mulliken atomic charges:
              1
     1  O   -0.702371
     2  C   -0.054640
     3  C   -0.629072
     4  H    0.375099
     5  H    0.195869
     6  H    0.220338
     7  H    0.192315
     8  H    0.183109
     9  H    0.219353
    10  O    0.000000
    11  H    0.000000
    12  H    0.000000
    13  O    0.000000
    14  H    0.000000
    15  H    0.000000
    16  O    0.000000
    17  H    0.000000
    18  H    0.000000
    19  O    0.000000
    20  H    0.000000
    21  H    0.000000
    22  O    0.000000
    23  H    0.000000
    24  H    0.000000
    25  O    0.000000
    26  H    0.000000
    27  H    0.000000
 Sum of Mulliken atomic charges =   0.00000
 Mulliken charges with hydrogens summed into heavy atoms:
              1
     1  O   -0.327272
     2  C    0.347822
     3  C   -0.020550
    10  O    0.000000
    13  O    0.000000
    16  O    0.000000
    19  O    0.000000
    22  O    0.000000
    25  O    0.000000
 Sum of Mulliken charges with hydrogens summed into heavy atoms =   0.00000
 Electronic spatial extent (au):  <R**2>=            730.7314
 Charge=              0.0000 electrons
 Dipole moment (field-independent basis, Debye):
    X=              1.5387    Y=              1.0846    Z=             -0.2801  Tot=              1.9033
 Quadrupole moment (field-independent basis, Debye-Ang):
   XX=            -15.3477   YY=            -17.4968   ZZ=            -19.9351
   XY=             -0.5050   XZ=             -1.2962   YZ=             -0.3499
 Traceless Quadrupole moment (field-independent basis, Debye-Ang):
   XX=              2.2455   YY=              0.0964   ZZ=             -2.3419
   XY=             -0.5050   XZ=             -1.2962   YZ=             -0.3499
 Octapole moment (field-independent basis, Debye-Ang**2):
  XXX=           -138.8397  YYY=             17.0796  ZZZ=             14.2372  XYY=            -45.6074
  XXY=              0.9551  XXZ=              0.6104  XZZ=            -49.2323  YZZ=              5.7285
  YYZ=              3.4981  XYZ=              0.2521
 Hexadecapole moment (field-independent basis, Debye-Ang**3):
 XXXX=           -860.0454 YYYY=            -50.9248 ZZZZ=            -57.0199 XXXY=             23.0050
 XXXZ=              6.3666 YYYX=             40.0404 YYYZ=            -10.7748 ZZZX=             19.2626
 ZZZY=            -11.3124 XXYY=           -148.2745 XXZZ=           -156.1539 YYZZ=            -19.5903
 XXYZ=             -1.7570 YYXZ=              4.1108 ZZXY=             13.2642
 N-N= 8.157197752719D+01 E-N=-5.227837868514D+02  KE= 1.528041799221D+02
 No NMR shielding tensors so no spin-rotation constants.
 Leave Link  601 at Wed Dec  4 09:57:51 2019, MaxMem=  805306368 cpu:       0.8
 (Enter /home/programs/G09_64/g09/l701.exe)
 Compute integral first derivatives.
 ... and contract with generalized density number  0.
 Leave Link  701 at Wed Dec  4 09:57:51 2019, MaxMem=  805306368 cpu:       0.8
 (Enter /home/programs/G09_64/g09/l702.exe)
 L702 exits ... SP integral derivatives will be done elsewhere.
 Leave Link  702 at Wed Dec  4 09:57:51 2019, MaxMem=  805306368 cpu:       0.2
 (Enter /home/programs/G09_64/g09/l703.exe)
 Compute integral first derivatives, UseDBF=F ICtDFT=           0.
 Integral derivatives from FoFDir, PRISM(SPDF).
 Calling FoFJK, ICntrl=      2127 FMM=F ISym2X=0 I1Cent= 0 IOpClX= 0 NMat=1 NMatS=1 NMatT=0.
 FoFCou: FMM=F IPFlag=           0 FMFlag=      100000 FMFlg1=         800
         NFxFlg=           0 DoJE=F BraDBF=F KetDBF=F FulRan=T
         Omega=  0.000000  0.000000  1.000000  0.000000  0.000000 ICntrl=    2127 IOpCl=  0
         NMat0=    1 NMatS0=    1 NMatT0=    0 NMatD0=    1 NMtDS0=    0 NMtDT0=    0
         I1Cent=           0 NGrid=           0.
 Symmetry not used in FoFCou.
 Leave Link  703 at Wed Dec  4 09:57:51 2019, MaxMem=  805306368 cpu:       0.6
 (Enter /home/programs/G09_64/g09/l716.exe)
 Dipole        = 6.05387229D-01 4.26703156D-01-1.10197340D-01
 ***** Axes restored to original set *****
 Cartesian Forces:  Max     0.039529817 RMS     0.007306841
 Leave Link  716 at Wed Dec  4 09:57:51 2019, MaxMem=  805306368 cpu:       0.2
 (Enter /home/programs/G09_64/g09/l120.exe)
 SvSCFP is copying densities from files   528 and   530 to   603.
 ONIOM: saving gridpoint  2
 ONIOM: restoring gridpoint 17
 ONIOM: generating point  1 -- low level on model system.
 Leave Link  120 at Wed Dec  4 09:57:51 2019, MaxMem=  805306368 cpu:       0.2
 (Enter /home/programs/G09_64/g09/l301.exe)
 Standard basis: STO-3G (5D, 7F)
 Ernie: Thresh=  0.10000D-02 Tol=  0.10000D-05 Strict=F.
 There are    21 symmetry adapted basis functions of A   symmetry.
 Integral buffers will be    131072 words long.
 Raffenetti 1 integral format.
 Two-electron integral symmetry is turned on.
    21 basis functions,    63 primitive gaussians,    21 cartesian basis functions
    13 alpha electrons       13 beta electrons
       nuclear repulsion energy        81.5719775272 Hartrees.
 IExCor=    0 DFT=F Ex=HF Corr=None ExCW=0 ScaHFX=  1.000000
 ScaDFX=  1.000000  1.000000  1.000000  1.000000 ScalE2=  1.000000  1.000000
 IRadAn=      0 IRanWt=     -1 IRanGd=            0 ICorTp=0
 NAtoms=   27 NActive=    9 NUniq=    9 SFac= 1.00D+00 NAtFMM=   50 NAOKFM=F Big=F
 Leave Link  301 at Wed Dec  4 09:57:51 2019, MaxMem=  805306368 cpu:       0.3
 (Enter /home/programs/G09_64/g09/l302.exe)
 NPDir=0 NMtPBC=     1 NCelOv=     1 NCel=       1 NClECP=     1 NCelD=      1
         NCelK=      1 NCelE2=     1 NClLst=     1 CellRange=     0.0.
 One-electron integrals computed using PRISM.
 NBasis=    21 RedAO= T  NBF=    21
 NBsUse=    21 1.00D-06 NBFU=    21
 Leave Link  302 at Wed Dec  4 09:57:51 2019, MaxMem=  805306368 cpu:       0.9
 (Enter /home/programs/G09_64/g09/l303.exe)
 DipDrv:  MaxL=1.
 Leave Link  303 at Wed Dec  4 09:57:51 2019, MaxMem=  805306368 cpu:       0.2
 (Enter /home/programs/G09_64/g09/l401.exe)
 Harris functional with IExCor=  205 diagonalized for initial guess.
 ExpMin= 1.69D-01 ExpMax= 1.31D+02 ExpMxC= 1.31D+02 IAcc=1 IRadAn=         1 AccDes= 0.00D+00
 HarFok:  IExCor=  205 AccDes= 0.00D+00 IRadAn=         1 IDoV= 1
 ScaDFX=  1.000000  1.000000  1.000000  1.000000
 FoFCou: FMM=F IPFlag=           0 FMFlag=      100000 FMFlg1=           0
         NFxFlg=           0 DoJE=T BraDBF=F KetDBF=T FulRan=T
         Omega=  0.000000  0.000000  1.000000  0.000000  0.000000 ICntrl=     500 IOpCl=  0
         NMat0=    1 NMatS0=    1 NMatT0=    0 NMatD0=    1 NMtDS0=    0 NMtDT0=    0
         I1Cent=           4 NGrid=           0.
 Petite list used in FoFCou.
 Harris En= -152.340293026659    
 Initial guess orbital symmetries:
       Occupied  (A) (A) (A) (A) (A) (A) (A) (A) (A) (A) (A) (A)
                 (A)
       Virtual   (A) (A) (A) (A) (A) (A) (A) (A)
 The electronic state of the initial guess is 1-A.
 Leave Link  401 at Wed Dec  4 09:57:51 2019, MaxMem=  805306368 cpu:       1.0
 (Enter /home/programs/G09_64/g09/l502.exe)
 Closed shell SCF:
 Requested convergence on RMS density matrix=1.00D-08 within 128 cycles.
 Requested convergence on MAX density matrix=1.00D-06.
 Requested convergence on             energy=1.00D-06.
 No special actions if energy rises.
 Using DIIS extrapolation, IDIIS=  1040.
 Integral symmetry usage will be decided dynamically.
 Keep R1 ints in memory in canonical form, NReq=846660.
 IEnd=       19850 IEndB=       19850 NGot=   805306368 MDV=   805276797
 LenX=   805276797 LenY=   805275915
 Symmetry not used in FoFDir.
 MinBra= 0 MaxBra= 1 Meth= 1.
 IRaf=       0 NMat=   1 IRICut=       1 DoRegI=T DoRafI=F ISym2E= 0 JSym2E=0.

 Cycle   1  Pass 1  IDiag  1:
 E= -152.036464077086    
 DIIS: error= 4.23D-02 at cycle   1 NSaved=   1.
 NSaved= 1 IEnMin= 1 EnMin= -152.036464077086     IErMin= 1 ErrMin= 4.23D-02
[...]
 76,0.00042465,-0.00007300,0.00000671,0.00000614,0.00021367,-0.00048830
 ,-0.00063558,0.00211011,-0.00086422,0.00020091,0.00119032,0.00408540,-
 0.00022859,0.00039562,0.00005190,-0.00013018,-0.30109915,-0.37488980,0
 .01119865,0.32028445,0.38856838,-0.00037453,-0.00036878,0.00026391,0.0
 0020578,0.00000376,-0.00001574,-0.00005682,-0.00000466,-0.00001231,0.0
 0002316,0.00012809,-0.00009519,-0.00001038,-0.00001687,0.00002091,0.00
 000438,-0.00000294,-0.00000445,0.00000024,0.00000297,0.00000509,-0.000
 04125,-0.00001251,0.00000192,-0.00001282,-0.00000936,0.00000410,0.0000
 6417,-0.00030537,0.00016832,0.00010538,0.00008822,-0.00006217,0.000231
 18,0.00009166,-0.00026218,-0.00000498,0.00029582,0.00044144,-0.0002178
 8,0.00002993,0.00003300,0.00017876,-0.00084703,-0.00068435,-0.00155073
 ,0.00113348,0.00021225,0.00490343,-0.00444369,0.00038696,0.00058523,0.
 00060434,-0.00029048,-0.09045565,-0.06171017,-0.07078002,0.04188448,0.
 01475181,0.06544035,0.00098701,-0.00026106,0.00055840,-0.00042295,-0.0
 0003135,0.00000026,0.00015145,-0.00000089,0.00005265,-0.00127453,-0.00
 008208,-0.00004029,0.00003413,0.00004305,-0.00004936,-0.00002292,0.000
 00577,0.00002122,-0.00001047,-0.00001833,-0.00000950,0.00014560,0.0000
 4270,0.00000575,0.00009963,0.00003726,-0.00001058,0.00183708,-0.001038
 04,-0.00162898,-0.00088141,-0.00026628,0.00017774,-0.00044912,0.001747
 17,0.00003151,-0.00013127,-0.00108643,0.00059310,0.00029907,-0.0000537
 5,0.00001698,-0.00040158,0.00054186,-0.00067892,-0.00241292,-0.0001291
 1,0.00279494,0.00830431,0.00206610,-0.00967049,-0.00111552,0.00052097,
 -0.00090642,-0.07126937,-0.00762669,-0.05106165,-0.00110957,-0.0243404
 9,0.04496821,0.09358811,0.00081219,-0.00265774,0.00237146,-0.00026905,
 -0.00022714,-0.00011877,0.00005136,-0.00001377,0.00002966,-0.00382883,
 0.00260216,-0.00046836,0.00003725,0.00000108,0.00000711,-0.00004290,0.
 00000390,0.00002896,-0.00004668,-0.00005138,0.00001292,0.00007399,0.00
 003207,0.00002519,0.00020062,0.00001088,-0.00000424,0.00951698,-0.0080
 0007,-0.00208444,-0.00068532,-0.00010323,-0.00084889,0.00064346,0.0048
 0287,-0.00295885,-0.00035047,-0.00211019,0.00362552,-0.00037480,0.0001
 9136,0.00012709,0.00107539,-0.00240851,-0.00347293,-0.00605305,0.00193
 331,0.00144919,0.01496766,-0.00424817,0.00448894,0.00142484,0.00281895
 ,-0.00141181,-0.04349020,-0.13378308,0.13581440,0.00450832,-0.01721476
 ,0.04887518,0.02943674,0.17102331,-0.00108728,0.00208510,-0.00480020,0
 .00040379,0.00012109,0.00025033,-0.00009575,0.00001542,-0.00003668,0.0
 0294216,-0.00221972,0.00133766,-0.00006081,-0.00001214,-0.00002493,0.0
 0009505,0.00001197,-0.00007919,0.00005631,0.00006106,-0.00000415,-0.00
 016625,-0.00007048,-0.00009375,-0.00016341,-0.00001573,0.00001744,-0.0
 1766830,0.01227221,0.00498545,0.00195589,0.00133927,0.00220718,0.00039
 213,-0.00839119,0.00408704,0.00021545,0.00377590,-0.00594534,-0.000174
 04,-0.00000845,-0.00023228,-0.00048560,0.00351137,0.00643330,0.0091311
 5,-0.00415907,-0.00461593,-0.02101087,0.00546728,-0.00144217,-0.001748
 88,-0.00298413,0.00245970,0.01077610,0.20831871,-0.44938762,-0.0144598
 6,-0.02713138,0.01176697,0.01628567,-0.17772353,0.44254994,-0.04848471
 ,0.05122688,0.00234708,0.01358360,0.01253432,0.00095920,-0.00146455,-0
 .00007559,-0.00092732,-0.00412987,-0.00701936,-0.01268166,-0.00020544,
 -0.00061904,0.00088565,-0.00009200,-0.00018705,0.00004570,-0.00015941,
 0.00007291,0.00024656,-0.00153853,-0.00066664,0.00016979,-0.00497061,-
 0.00139777,-0.00033786,0.01212668,-0.00478856,-0.00188007,-0.00534867,
 -0.00442601,-0.00749439,-0.00039475,0.00139702,-0.00078235,0.00051685,
 -0.00014360,0.00147695,0.00014487,-0.00040387,0.00001869,-0.00057664,-
 0.00146412,-0.00193275,0.00363199,0.00235317,0.00011912,-0.00460203,0.
 00158870,-0.00053407,-0.00518047,-0.00684191,0.00456196,0.00310307,-0.
 00286839,0.00264506,-0.00003642,0.00004702,0.00008617,0.00108318,0.004
 99502,-0.00731521,0.50453724,0.04967665,-0.02312106,0.00070872,-0.0089
 6160,-0.01213657,-0.00086819,0.00136797,-0.00026892,0.00094144,-0.0216
 2220,-0.02314664,0.00074751,0.00013075,0.00074022,-0.00078399,-0.00001
 725,0.00021934,0.00000132,0.00032050,0.00013623,-0.00040933,0.00155396
 ,0.00047882,-0.00003136,0.00430212,0.00153967,0.00026837,0.00124241,-0
 .00239575,-0.00229164,0.00198512,0.00210443,0.00472723,-0.00004873,0.0
 0253227,-0.00057444,-0.00046537,-0.00201090,0.00005061,0.00028618,0.00
 018077,0.00008029,0.00019388,0.00151590,0.00106187,-0.00150373,-0.0017
 7595,0.00077596,0.00180608,-0.00039678,-0.00058645,0.00258579,0.004617
 00,-0.00366081,-0.00197467,0.00062890,0.00154087,0.00009461,-0.0002755
 7,-0.00021792,0.00170023,0.00129737,-0.00377994,0.14295608,0.31505136,
 -0.00352049,0.00372931,0.01491993,0.00253143,0.00139177,0.00028732,-0.
 00037245,0.00008853,-0.00020035,0.00930192,-0.01049408,-0.03875949,-0.
 00002168,-0.00015474,0.00024010,-0.00009287,-0.00000551,0.00008963,0.0
 0001521,0.00000501,-0.00009554,-0.00013908,-0.00017787,0.00014453,-0.0
 0073344,-0.00015115,-0.00001033,0.00494608,-0.00284752,-0.00073979,-0.
 00136123,-0.00089662,-0.00210359,-0.00011982,0.00143168,-0.00085839,0.
 00013542,-0.00050796,0.00122418,0.00006765,-0.00010545,0.00002991,-0.0
 0012364,-0.00094073,-0.00139199,0.00082484,0.00107814,0.00084296,-0.00
 150642,-0.00002419,-0.00019072,-0.00059008,-0.00193114,0.00057610,0.00
 094270,-0.00090345,0.00150590,0.00029137,0.00030819,0.00008509,0.00004
 358,0.00174333,-0.00460245,-0.09417676,0.25471191,0.71783452,0.0071641
 9,-0.00766653,-0.00109326,-0.00189280,-0.00192400,-0.00007877,0.000408
 33,0.00000197,0.00023208,-0.02711607,0.00598307,-0.00549428,0.00011364
 ,0.00011348,-0.00019743,-0.00000538,0.00007420,-0.00000315,-0.00007636
 ,-0.00010342,-0.00002545,0.00033607,0.00010355,-0.00009351,0.00100914,
 0.00019978,0.00005476,-0.01530946,0.00709210,0.00416534,0.00124413,0.0
 0365695,0.00335660,0.00022756,-0.00256289,0.00121156,-0.00021636,0.000
 98729,-0.00150491,-0.00024488,0.00021062,-0.00007259,0.00031585,0.0009
 1637,0.00151743,-0.00180070,-0.00122955,-0.00094283,0.00346966,-0.0004
 4921,0.00054366,0.00110772,0.00257740,-0.00105296,-0.00203870,0.002781
 93,-0.00442715,-0.00041180,-0.00032148,-0.00013439,-0.00158069,-0.0084
 5521,0.01291574,-0.25962279,-0.18467345,-0.13633356,0.27781791,0.00652
 481,-0.01193437,-0.00345714,-0.00167680,-0.00192906,-0.00018935,0.0000
 9148,0.00008772,0.00012551,-0.01518924,0.02583203,0.00638036,0.0000676
 1,-0.00002960,-0.00010745,0.00007048,0.00005194,-0.00005853,-0.0001384
 7,-0.00013245,0.00004601,-0.00006670,0.00004797,-0.00015925,0.00092288
 ,0.00003930,0.00007972,-0.01765301,0.01052759,0.00607793,0.00402077,0.
 00283621,0.00306540,0.00039052,-0.00548179,0.00198225,-0.00000726,0.00
 295808,-0.00235554,-0.00052648,0.00023472,-0.00014770,0.00039134,0.000
 24624,0.00160212,-0.00213685,-0.00088792,-0.00167761,0.00324489,-0.000
 86856,0.00138027,0.00195094,0.00244351,-0.00038035,-0.00089490,0.00273
 745,-0.00625027,-0.00040652,0.00007768,0.00001575,-0.00470576,-0.01034
 144,0.01666815,-0.14690562,-0.19804706,-0.13745553,0.14626189,0.203738
 32,0.00688613,-0.00809431,-0.00341495,-0.00187362,-0.00191010,0.000124
 47,0.00026722,0.00002947,0.00018630,-0.02164542,0.01524842,0.00268330,
 0.00004696,0.00008407,-0.00021817,0.00010342,0.00003114,-0.00007537,-0
 .00005057,-0.00005218,0.00004689,0.00018741,0.00009028,-0.00017535,0.0
 0094008,0.00015986,0.00003723,-0.01148791,0.00770302,0.00275315,0.0026
 3351,0.00184107,0.00342172,0.00010178,-0.00393506,0.00196153,-0.000086
 54,0.00191746,-0.00251722,-0.00023894,0.00015200,-0.00009755,0.0001648
 3,0.00128196,0.00231988,-0.00099869,-0.00157533,-0.00166783,0.00160268
 ,0.00029097,0.00051746,0.00064770,0.00198392,-0.00037707,-0.00044758,0
 .00112112,-0.00379761,-0.00076700,-0.00063558,-0.00016767,0.00023568,-
 0.00150451,0.01181143,-0.05292146,-0.09924762,-0.15147834,0.09975255,0
 .11260862,0.19227427,-0.00326497,0.00316165,-0.00326517,0.00083126,0.0
 0097588,0.00054224,-0.00016328,-0.00007462,-0.00011613,0.00633318,-0.0
 0793910,0.01500399,-0.00006897,-0.00001738,0.00003361,0.00006011,-0.00
 002584,-0.00007612,0.00003709,0.00005506,0.00008989,-0.00020618,-0.000
 03113,-0.00009892,-0.00038986,-0.00013761,-0.00010065,0.00045011,0.000
 18591,-0.00022391,-0.00011213,-0.00053999,-0.00025335,0.00002517,-0.00
 037772,0.00023131,0.00001367,0.00018588,-0.00032384,-0.00001223,-0.000
 01157,-0.00000264,-0.00001338,0.00018513,0.00035274,0.00002709,-0.0001
 5082,-0.00051127,0.00027632,0.00014959,0.00013804,-0.00040335,-0.00016
 721,0.00059825,-0.00029449,0.00017719,-0.00002010,-0.00003909,-0.00006
 114,-0.00002339,0.00017298,-0.00027609,-0.00010067,-0.17030873,0.04330
 264,0.24907831,0.01986697,-0.00728558,-0.04287561,0.15218339,0.0004647
 1,-0.00086789,0.00204408,0.00032785,-0.00009013,-0.00006828,-0.0001315
 5,0.00001859,-0.00003218,0.00184983,-0.00068503,-0.00880237,-0.0000188
 1,-0.00004001,0.00005022,0.00000216,-0.00002462,0.00000584,0.00000400,
 0.00001531,0.00002729,-0.00006416,-0.00000038,0.00001461,-0.00002893,-
 0.00002034,0.00001512,-0.00015859,-0.00002718,0.00034104,0.00007496,0.
 00004404,-0.00024582,0.00003897,0.00000066,-0.00019436,0.00005255,0.00
 018610,0.00040755,-0.00006340,0.00000070,-0.00000063,0.00003524,-0.000
 59311,-0.00069326,-0.00020010,0.00056252,0.00046006,0.00009998,-0.0005
 4260,0.00006596,0.00047621,-0.00019834,-0.00020456,0.00001618,0.000371
 75,-0.00003620,0.00030592,0.00041071,0.00019287,-0.00055871,-0.0006239
 4,-0.00090136,0.00367194,-0.04084793,-0.07584909,0.02196249,-0.0021728
 0,-0.03488228,-0.02623221,0.04724644,-0.00226928,0.00184625,0.00070472
 ,-0.00032706,0.00018222,-0.00017687,0.00009124,0.00004537,0.00002558,-
 0.00020403,0.00059208,0.00166899,0.00005941,-0.00001875,0.00000460,-0.
 00004564,0.00001564,0.00004228,-0.00007366,-0.00007997,-0.00001553,0.0
 0005893,0.00000738,0.00003178,-0.00001301,-0.00001347,0.00001504,-0.00
 037272,-0.00038770,0.00022695,-0.00016723,0.00046150,-0.00001069,0.000
 00618,0.00053423,-0.00027274,-0.00005201,-0.00035897,0.00030144,0.0000
 1803,0.00002221,0.00001079,0.00004224,-0.00004985,-0.00019272,-0.00021
 022,0.00003841,0.00020789,0.00042274,-0.00018098,-0.00001104,0.0001944
 7,0.00023913,-0.00024053,-0.00043374,0.00034023,0.00017878,0.00011932,
 0.00006963,-0.00001139,0.00010564,-0.00036523,-0.00061375,0.18686942,-
 0.13138514,-0.53453287,0.03378169,0.01082099,-0.02206675,-0.21645234,0
 .11726453,0.55274810,-0.00445734,0.00066793,-0.00748203,0.00210814,0.0
 0048685,0.00012274,-0.00037730,0.00000566,-0.00008802,0.00592181,-0.00
 470434,0.00115654,-0.00013065,-0.00012559,0.00008737,0.00012868,0.0000
 4103,-0.00014498,0.00005077,0.00007156,-0.00001385,-0.00051198,-0.0001
 9866,-0.00011158,-0.00034888,-0.00010246,0.00007122,-0.08202024,0.0679
 9754,0.03462743,0.00682144,0.00673745,0.00778714,-0.00540187,-0.022140
 84,0.01182326,0.00144474,0.01132521,-0.00962462,-0.00020562,-0.0003150
 0,-0.00047200,-0.00107794,0.00222680,0.00547572,0.00377728,-0.00204165
 ,-0.00412162,-0.00966783,0.00232382,0.00002656,-0.00117947,-0.00199289
 ,0.00221206,0.01573693,-0.00910115,0.01234146,0.00093088,0.00182104,-0
 .00041727,-0.02738828,0.00987281,-0.01897921,-0.01323614,-0.02862531,-
 0.02096419,-0.03131225,0.00200643,0.00369556,-0.00388619,-0.00222778,-
 0.00215505,0.65460223,-0.00414075,0.01233391,0.00558223,0.00116170,0.0
 0174912,0.00025935,-0.00014244,-0.00008463,-0.00017009,0.02197252,-0.0
 1882574,-0.00063521,-0.00008597,0.00005450,0.00010566,-0.00005545,-0.0
 0010079,0.00008808,0.00018967,0.00018922,-0.00004104,0.00010660,0.0000
 0426,0.00019618,-0.00099688,-0.00002646,-0.00012062,0.07198580,-0.0211
 3231,-0.02336254,-0.00343018,-0.00965395,-0.00820780,-0.00072725,0.014
 76540,-0.00585280,-0.00020326,-0.00649896,0.00502784,0.00095936,-0.000
 30616,0.00035915,-0.00051619,-0.00081932,-0.00305108,0.00380440,0.0015
 9992,0.00254386,-0.00785259,0.00138815,-0.00171957,-0.00199322,-0.0037
 6619,0.00073986,-0.00112467,-0.00435439,0.02612233,0.00255148,0.000839
 48,0.00054798,0.00120078,-0.01768126,-0.00727805,-0.05023660,-0.022675
 43,-0.03558924,0.02439628,-0.01188626,0.02859446,-0.00490165,-0.002310
 84,-0.00004056,-0.19500711,0.23732746,-0.00093569,0.00410961,0.0091040
 1,-0.00004904,0.00081326,-0.00027287,0.00007493,-0.00005548,-0.0000633
 4,0.00865261,-0.00711730,-0.00216061,0.00005239,0.00003995,0.00010652,
 -0.00018493,-0.00005825,0.00016478,0.00000730,-0.00000278,-0.00002387,
 0.00025151,0.00008606,0.00023874,-0.00034022,-0.00001295,-0.00008206,0
 .06126707,-0.04112078,0.00439848,-0.00339526,-0.00711857,-0.00869922,0
 .00308477,0.01920314,-0.01062686,-0.00078962,-0.00969115,0.01055532,0.
 00040179,0.00005176,0.00046032,0.00075044,-0.00428096,-0.00834372,-0.0
 0533396,0.00412488,0.00620802,0.01559678,-0.00452340,-0.00004885,0.000
 94919,0.00140806,-0.00217640,-0.00059604,0.03165174,-0.04119302,-0.001
 52925,0.00114193,-0.00550844,0.00283431,-0.00344847,-0.01013525,-0.025
 94003,-0.02276279,-0.00638904,-0.00033161,-0.00258203,-0.02250498,-0.0
 0169724,0.00089055,0.00220546,0.22459364,-0.00052535,0.55663622,0.0038
 1383,0.01008997,0.01900942,-0.00223344,0.00115762,0.00019094,0.0004801
 0,-0.00010099,-0.00001236,0.01260038,-0.01037744,-0.00278188,0.0001473
 9,0.00024706,-0.00002751,-0.00028330,-0.00014634,0.00032867,0.00007383
 ,0.00003904,-0.00001842,0.00100652,0.00032833,0.00037531,-0.00039919,0
 .00011627,-0.00022174,-0.04496198,-0.03502650,-0.01105351,-0.02885263,
 -0.00643944,-0.00879475,0.01119066,0.05000798,-0.02373403,-0.00256373,
 -0.02807158,0.02282724,0.00098579,0.00018071,0.00131477,0.00179073,-0.
 00493462,-0.01260548,-0.00344127,0.00508473,0.00914059,0.01037283,-0.0
 0320644,-0.00030900,0.00066227,0.00033657,-0.00326652,-0.00690324,0.00
 879936,-0.01141103,0.00001550,-0.00035153,-0.00022451,-0.00267679,-0.0
 1623724,0.03261787,-0.01911707,-0.00405007,-0.00876573,0.03114774,0.02
 681862,0.01806248,-0.00090852,0.00006441,0.00086287,-0.15401743,0.0429
 2072,-0.00919587,0.20069028,-0.00164136,-0.00834371,-0.01148340,0.0010
 7252,-0.00072577,-0.00020595,-0.00013771,0.00005393,0.00006044,-0.0099
 9072,0.00659226,-0.00014374,-0.00002013,-0.00013201,0.00000833,0.00008
 839,0.00012840,-0.00016784,-0.00010163,-0.00010516,-0.00000869,-0.0004
 9172,-0.00018246,-0.00021081,0.00041677,-0.00005432,0.00016384,-0.0183
 5135,-0.05359698,0.00210752,-0.00742622,0.02134763,0.01450597,0.017683
 15,-0.03096050,0.00341870,0.00022980,0.01279971,-0.01049279,-0.0012007
 1,0.00030250,-0.00081950,-0.00031220,0.00271525,0.00763853,0.00117584,
 -0.00328227,-0.00580846,-0.00492428,0.00190615,0.00085554,0.00016306,0
 .00086002,0.00149236,0.00416907,-0.00638257,0.00638514,-0.00059590,0.0
 0004058,0.00063912,-0.00211868,0.01403171,-0.01674269,0.01086623,0.002
 27209,0.00581855,-0.00814433,-0.02275317,-0.01864138,0.00036691,0.0001
 6327,0.00048301,0.07033527,-0.09422511,-0.01528467,-0.04480872,0.15546
 334,-0.00017534,-0.00434394,-0.00860475,0.00052587,-0.00036066,0.00020
 676,-0.00000792,0.00003861,0.00010836,-0.00615101,0.00281912,0.0004875
 4,-0.00002968,-0.00003768,-0.00009318,0.00013176,0.00007063,-0.0001361
 8,-0.00002584,-0.00001849,-0.00000870,-0.00016995,-0.00008061,-0.00019
 322,0.00027176,0.00001309,0.00008726,0.01311388,-0.00279372,-0.0552410
 5,-0.01369089,0.01477913,0.01279952,-0.01213526,-0.01596623,0.01245875
 ,0.00106767,0.01096051,-0.01048980,-0.00003131,-0.00019930,-0.00045101
 ,-0.00110369,0.00363640,0.00556844,0.00167191,-0.00282598,-0.00311158,
 -0.00344622,0.00145378,-0.00101274,-0.00117783,-0.00025462,0.00053028,
 0.00131616,-0.00192049,0.00430765,-0.00003180,-0.00017601,-0.00014213,
 0.00538671,0.00125600,-0.01159959,0.00651190,0.00269768,0.00287417,-0.
 00589703,-0.01319695,-0.00792904,0.00038958,-0.00027498,-0.00008139,0.
 07929498,-0.06043609,-0.12806697,-0.02611826,0.03892744,0.17006136,-0.
 00059782,-0.00005811,-0.00005337,0.00024225,0.00006182,-0.00010288,-0.
 00006212,0.00000328,-0.00003140,0.00080256,0.00006158,0.00000660,-0.00
 000783,-0.00002930,0.00004247,-0.00001417,0.00000430,-0.00000130,-0.00
 000973,-0.00000667,-0.00000305,-0.00009037,-0.00002625,0.00001674,-0.0
 0005932,-0.00003056,0.00000924,-0.00327420,0.00288647,0.00579758,0.001
 26790,0.00029789,-0.00013903,0.00005422,-0.00129278,0.00005049,0.00008
 187,0.00057967,-0.00009090,-0.00009655,0.00001855,-0.00004442,0.000054
 19,-0.00031387,-0.00005456,-0.00000354,0.00016810,-0.00017200,-0.00037
 663,-0.00004681,0.00026039,0.00022949,-0.00003200,0.00018081,-0.000443
 66,-0.00214106,0.00400243,0.00010277,-0.00008820,0.00028404,0.00444483
 ,0.00249323,-0.00427118,0.00074138,-0.00156259,0.00064293,-0.00260066,
 0.00483054,-0.00193466,-0.00020598,0.00023684,0.00014383,-0.35630349,0
 .10016490,-0.26819797,-0.00861928,-0.00630135,-0.03949014,0.36474389,-
 0.00019400,0.00029846,0.00024530,0.00005221,0.00011634,-0.00001555,0.0
 0000705,0.00000066,-0.00000355,0.00100806,-0.00073852,-0.00012240,0.00
 000506,-0.00000297,0.00000973,-0.00001284,0.00000473,0.00000917,-0.000
 00718,-0.00000486,-0.00000775,0.00000541,-0.00000276,0.00001041,-0.000
 04002,-0.00001043,0.00000149,0.00368072,-0.00338711,-0.00390392,-0.000
 81628,-0.00014945,-0.00029180,0.00045558,0.00114827,-0.00022646,-0.000
 16466,-0.00067875,0.00022969,-0.00003909,0.00003997,0.00001680,0.00006
 800,0.00022088,0.00011348,0.00008447,-0.00014139,-0.00004759,-0.000266
 55,0.00016326,-0.00008048,-0.00007340,-0.00006674,-0.00004175,-0.00104
 517,-0.00092342,0.00164825,-0.00005706,-0.00034573,0.00053831,0.004975
 03,0.00071572,-0.00222965,-0.00366514,-0.00621580,-0.00227215,-0.00178
 932,0.01460571,-0.00265952,-0.00051617,0.00002504,-0.00008220,0.090663
 38,-0.05590362,0.05506400,0.00755952,0.00206723,0.02623334,-0.09987762
 ,0.04916528,-0.00052906,0.00026986,0.00048205,0.00024627,0.00008836,-0
 .00002013,-0.00008082,-0.00000210,-0.00002914,0.00127107,-0.00028842,0
 .00002659,-0.00001713,-0.00002250,0.00003294,0.00000479,-0.00000995,0.
 00000021,0.00000476,0.00001229,0.00000560,-0.00006013,-0.00001393,0.00
 001225,-0.00007732,-0.00002370,-0.00000214,0.00776342,-0.00463295,-0.0
 0378582,0.00005666,-0.00050691,-0.00065116,0.00018926,0.00060354,-0.00
 060059,0.00005800,-0.00010241,0.00063875,-0.00005461,-0.00000744,0.000
 02513,0.00008121,-0.00069983,-0.00074767,-0.00047676,0.00054081,0.0002
 7234,0.00110402,-0.00058241,0.00042037,0.00034316,0.00006933,0.0000369
 1,0.00228517,0.00177287,-0.00244217,-0.00008983,0.00089106,-0.00079377
 ,-0.01005616,-0.00544494,0.00570685,-0.00001931,-0.00171417,0.00069854
 ,0.00015150,0.00716462,-0.00164970,-0.00031661,0.00040568,-0.00014617,
 -0.31874125,0.07686306,-0.34378236,0.01381041,-0.00249459,0.01767126,0
 .30314931,-0.07213521,0.32862103\\0.00000044,-0.00000047,0.00000057,0.
 00000015,-0.00000047,0.00000039,0.00000033,0.00000024,-0.00000038,-0.0
 0000034,0.00000018,-0.00000097,-0.00000010,0.,0.,-0.00000002,-0.000000
 12,0.00000002,-0.00000017,0.,0.00000014,-0.00000005,-0.00000002,-0.000
 00012,-0.00000020,0.00000001,-0.00000004,-0.00000021,-0.00000037,0.000
 00021,-0.00000006,0.00000022,-0.00000025,0.00000005,-0.00000056,0.0000
 0033,0.00000042,0.00000027,-0.00000021,-0.00000006,-0.00000002,0.00000
 011,-0.00000058,0.00000010,0.00000022,0.00000103,-0.00000068,-0.000000
 55,0.00000003,-0.00000034,0.00000031,-0.00000100,0.00000123,0.,0.00000
 025,0.00000078,0.00000002,0.,-0.00000003,0.00000004,-0.00000053,-0.000
 00085,-0.00000010,-0.00000040,0.00000075,0.00000030,0.00000121,-0.0000
 0183,0.00000044,-0.00000014,0.00000017,0.00000002,-0.00000105,0.000000
 43,0.00000012,0.00000087,0.00000142,-0.00000061,0.00000011,-0.00000007
 ,-0.00000001\\\@


      LET US REMEMBER, PLEASE, THAT THE SEARCH FOR THE CONSTITUTION
      OF THE WORLD IS ONE OF THE GREATEST AND NOBLEST PROBLEMS PRESENTED 
      BY NATURE.

                                                  -- GALILEO
 Job cpu time:  0 days  0 hours  0 minutes 37.7 seconds.
 File lengths (MBytes):  RWF=     21 Int=      0 D2E=      0 Chk=      3 Scr=      1
 Normal termination of Gaussian 09 at Wed Dec  4 09:58:52 2019.
