
                                 *****************
                                 * O   R   C   A *
                                 *****************

           --- An Ab Initio, DFT and Semiempirical electronic structure package ---

                  #######################################################
                  #                        -***-                        #
                  #  Department of molecular theory and spectroscopy    #
                  #              Directorship: Frank Neese              #
                  # Max Planck Institute for Chemical Energy Conversion #
                  #                  D-45470 Muelheim/Ruhr              #
                  #                       Germany                       #
                  #                                                     #
                  #                  All rights reserved                #
                  #                        -***-                        #
                  #######################################################


                         Program Version 4.0.1.2 - RELEASE -


 With contributions from (in alphabetic order):
   Daniel Aravena         : Magnetic Properties
   Michael Atanasov       : Ab Initio Ligand Field Theory
   Ute Becker             : Parallelization
   Martin Brehm           : Molecular dynamics
   Dmytro Bykov           : SCF Hessian
   Vijay G. Chilkuri      : MRCI spin determinant printing
   Dipayan Datta          : RHF DLPNO-CCSD density
   Achintya Kumar Dutta   : EOM-CC, STEOM-CC
   Dmitry Ganyushin       : Spin-Orbit,Spin-Spin,Magnetic field MRCI
   Yang Guo               : DLPNO-NEVPT2, CIM, IAO-localization
   Andreas Hansen         : Spin unrestricted coupled pair/coupled cluster methods
   Lee Huntington         : MR-EOM, pCC
   Robert Izsak           : Overlap fitted RIJCOSX, COSX-SCS-MP3, EOM
   Christian Kollmar      : KDIIS, OOCD, Brueckner-CCSD(T), CCSD density
   Simone Kossmann        : Meta GGA functionals, TD-DFT gradient, OOMP2, MP2 Hessian
   Martin Krupicka        : AUTO-CI
   Dagmar Lenk            : GEPOL surface
   Dimitrios Liakos       : Extrapolation schemes; parallel MDCI
   Dimitrios Manganas     : ROCIS; embedding schemes
   Dimitrios Pantazis     : SARC Basis sets
   Taras Petrenko         : DFT Hessian,TD-DFT gradient, ASA, ECA, R-Raman, ABS, FL, XAS/XES, NRVS
   Peter Pinski           : DLPNO-MP2
   Christoph Reimann      : Effective Core Potentials
   Marius Retegan         : Local ZFS, SOC
   Christoph Riplinger    : Optimizer, TS searches, QM/MM, DLPNO-CCSD(T), (RO)-DLPNO pert. Triples
   Tobias Risthaus        : Range-separated hybrids, TD-DFT gradient, RPA, STAB
   Michael Roemelt        : Restricted open shell CIS
   Masaaki Saitow         : Open-shell DLPNO
   Barbara Sandhoefer     : DKH picture change effects
   Kantharuban Sivalingam : CASSCF convergence, NEVPT2, FIC-MRCI
   Georgi Stoychev        : AutoAux
   Boris Wezisla          : Elementary symmetry handling
   Frank Wennmohs         : Technical directorship


 We gratefully acknowledge several colleagues who have allowed us to
 interface, adapt or use parts of their codes:
   Stefan Grimme, W. Hujo, H. Kruse,             : VdW corrections, initial TS optimization,
                  C. Bannwarth                     DFT functionals, gCP, sTDA/sTD-DF
   Ed Valeev                                     : LibInt (2-el integral package), F12 methods
   Garnet Chan, S. Sharma, J. Yang, R. Olivares  : DMRG
   Ulf Ekstrom                                   : XCFun DFT Library
   Mihaly Kallay                                 : mrcc  (arbitrary order and MRCC methods)
   Andreas Klamt, Michael Diedenhofen            : otool_cosmo (COSMO solvation model)
   Jiri Pittner, Ondrej Demel                    : Mk-CCSD
   Frank Weinhold                                : gennbo (NPA and NBO analysis)
   Christopher J. Cramer and Donald G. Truhlar   : smd solvation model


 Your calculation uses the libint2 library for the computation of 2-el integrals
 For citations please refer to: http://libint.valeyev.net

 This ORCA versions uses:
   CBLAS   interface :  Fast vector & matrix operations
   LAPACKE interface :  Fast linear algebra routines
   SCALAPACK package :  Parallel linear algebra routines


Your calculation utilizes the basis: STO-3G
   H-Ne       : W. J. Hehre, R. F. Stewart and J. A. Pople, J. Chem. Phys. 2657 (1969).
   Na-Ar      : W. J. Hehre, R. Ditchfield, R. F. Stewart and J. A. Pople, J. Chem. Phys. 2769 (1970).
   K,Ca,Ga-Kr : W. J. Pietro, B. A. Levy, W. J. Hehre and R. F. Stewart, J. Am. Chem. Soc. 19, 2225 (1980).
   Sc-Zn,Y-Cd : W. J. Pietro and W. J. Hehre, J. Comp. Chem. 4, 241 (1983).

================================================================================
                                        WARNINGS
                       Please study these warnings very carefully!
================================================================================

Warning: TCutStore was < 0. Adjusted to Thresh (uncritical)

WARNING: your system is open-shell and RHF/RKS was chosen
  ===> : WILL SWITCH to UHF/UKS


WARNING: Geometry Optimization
  ===> : Switching off AutoStart
         For restart on a previous wavefunction, please use MOREAD

INFO   : the flag for use of LIBINT has been found!

================================================================================
                                       INPUT FILE
================================================================================
NAME = TSC_1.inp
|  1> %pal nprocs 1 end
|  2> ! hf sto-3g TightSCF
|  3> ! Opt Freq
|  4> * xyz 0 2
|  5>   6     1.280734 0.341221 -0.082642
|  6>   6     0.036500 -0.506105 0.272717
|  7>   8     -1.185857 0.012667 -0.278093
|  8>   1     2.178215 -0.147045 0.284633
|  9>   1     1.364335 0.457526 -1.158787
| 10>   1     1.218663 1.327820 0.366815
| 11>   1     0.151414 -1.509068 -0.149703
| 12>   1     -0.034069 -0.616537 1.361259
| 13>   1     -1.333070 0.936910 0.233883
| 14>   1     -1.431204 1.864687 0.816600
| 15> *
| 16> 
| 17> 
| 18>                          ****END OF INPUT****
================================================================================

                       *****************************
                       * Geometry Optimization Run *
                       *****************************

Geometry optimization settings:
Update method            Update   .... BFGS
Choice of coordinates    CoordSys .... Redundant Internals
Initial Hessian          InHess   .... Almoef's Model

Convergence Tolerances:
Energy Change            TolE     ....  5.0000e-06 Eh
Max. Gradient            TolMAXG  ....  3.0000e-04 Eh/bohr
RMS Gradient             TolRMSG  ....  1.0000e-04 Eh/bohr
Max. Displacement        TolMAXD  ....  4.0000e-03 bohr
RMS Displacement         TolRMSD  ....  2.0000e-03 bohr

------------------------------------------------------------------------------
                        ORCA OPTIMIZATION COORDINATE SETUP
------------------------------------------------------------------------------

The optimization will be done in new redundant internal coordinates
Making redundant internal coordinates   ...  (new redundants) done
Evaluating the initial hessian          ...  (Almloef) done
Evaluating the coordinates              ...  done
Calculating the B-matrix                .... done
Calculating the G-matrix                .... done
Diagonalizing the G-matrix              .... done
The first mode is                       ....   12
The number of degrees of freedom        ....   24

    -----------------------------------------------------------------
                    Redundant Internal Coordinates


    -----------------------------------------------------------------
         Definition                    Initial Value    Approx d2E/dq
    -----------------------------------------------------------------
      1. B(C   1,C   0)                  1.5467         0.351312   
      2. B(O   2,C   1)                  1.4376         0.469834   
      3. B(H   3,C   0)                  1.0857         0.365820   
      4. B(H   4,C   0)                  1.0856         0.365920   
      5. B(H   5,C   0)                  1.0859         0.365526   
      6. B(H   6,C   1)                  1.0943         0.354405   
      7. B(H   7,C   1)                  1.0964         0.351729   
      8. B(H   8,O   2)                  1.0668         0.351244   
      9. B(H   9,H   8)                  1.1000         0.066459   
     10. A(C   1,C   0,H   5)          110.8939         0.321856   
     11. A(H   3,C   0,H   4)          108.6537         0.292297   
     12. A(H   3,C   0,H   5)          108.4105         0.292247   
     13. A(C   1,C   0,H   4)          110.3880         0.321913   
     14. A(H   4,C   0,H   5)          108.5024         0.292260   
     15. A(C   1,C   0,H   3)          109.9306         0.321898   
     16. A(C   0,C   1,O   2)          113.4705         0.371628   
     17. A(H   6,C   1,H   7)          107.3185         0.289045   
     18. A(O   2,C   1,H   7)          111.2243         0.333507   
     19. A(C   0,C   1,H   7)          109.5759         0.319837   
     20. A(O   2,C   1,H   6)          105.7904         0.333927   
     21. A(C   0,C   1,H   6)          109.2033         0.320233   
     22. A(C   1,O   2,H   8)          104.2468         0.330583   
     23. L(O   2,H   8,H   9,C   1, 2) 181.5911         0.197204   
     24. L(O   2,H   8,H   9,C   1, 1) 175.9542         0.197204   
     25. D(H   6,C   1,C   0,H   5)   -177.0997         0.009938   
     26. D(O   2,C   1,C   0,H   4)    -55.1164         0.009938   
     27. D(H   6,C   1,C   0,H   3)    -57.2314         0.009938   
     28. D(O   2,C   1,C   0,H   3)   -174.9660         0.009938   
     29. D(O   2,C   1,C   0,H   5)     65.1657         0.009938   
     30. D(H   7,C   1,C   0,H   3)     60.0539         0.009938   
     31. D(H   7,C   1,C   0,H   4)    179.9035         0.009938   
     32. D(H   7,C   1,C   0,H   5)    -59.8144         0.009938   
     33. D(H   6,C   1,C   0,H   4)     62.6181         0.009938   
     34. D(H   8,O   2,C   1,H   7)     57.3686         0.017400   
     35. D(H   8,O   2,C   1,H   6)    173.5806         0.017400   
     36. D(H   8,O   2,C   1,C   0)    -66.7207         0.017400   
    -----------------------------------------------------------------

Number of atoms                         .... 10
Number of degrees of freedom            .... 36

         *************************************************************
         *                GEOMETRY OPTIMIZATION CYCLE   1            *
         *************************************************************
---------------------------------
CARTESIAN COORDINATES (ANGSTROEM)
---------------------------------
  C      1.280734    0.341221   -0.082642
  C      0.036500   -0.506105    0.272717
  O     -1.185857    0.012667   -0.278093
  H      2.178215   -0.147045    0.284633
  H      1.364335    0.457526   -1.158787
  H      1.218663    1.327820    0.366815
  H      0.151414   -1.509068   -0.149703
  H     -0.034069   -0.616537    1.361259
  H     -1.333070    0.936910    0.233883
  H     -1.431204    1.864687    0.816600

----------------------------
CARTESIAN COORDINATES (A.U.)
----------------------------
  NO LB      ZA    FRAG     MASS         X           Y           Z
   0 C     6.0000    0    12.011    2.420237    0.644814   -0.156171
   1 C     6.0000    0    12.011    0.068975   -0.956400    0.515360
   2 O     8.0000    0    15.999   -2.240945    0.023937   -0.525520
   3 H     1.0000    0     1.008    4.116230   -0.277875    0.537878
   4 H     1.0000    0     1.008    2.578220    0.864599   -2.189790
   5 H     1.0000    0     1.008    2.302939    2.509216    0.693180
   6 H     1.0000    0     1.008    0.286131   -2.851725   -0.282898
   7 H     1.0000    0     1.008   -0.064381   -1.165086    2.572407
   8 H     1.0000    0     1.008   -2.519137    1.770503    0.441975
   9 H     1.0000    0     1.008   -2.704584    3.523748    1.543150

--------------------------------
INTERNAL COORDINATES (ANGSTROEM)
--------------------------------
 C      0   0   0     0.000000000000     0.00000000     0.00000000
 C      1   0   0     1.546725449430     0.00000000     0.00000000
 O      2   1   0     1.437592668155   113.47052567     0.00000000
 H      1   2   3     1.085710254968   109.93061032   185.03398041
 H      1   2   3     1.085635316877   110.38799196   304.88356364
 H      1   2   3     1.085929091005   110.89387354    65.16569903
 H      2   1   3     1.094339372939   109.20330804   117.73457863
 H      2   1   3     1.096402707106   109.57594704   235.01990508
 H      3   2   1     1.066778428257   104.24683152   293.27933537
 H      9   3   2     1.099981611562   175.79317415   343.53316537

---------------------------
INTERNAL COORDINATES (A.U.)
---------------------------
 C      0   0   0     0.000000000000     0.00000000     0.00000000
 C      1   0   0     2.922887503788     0.00000000     0.00000000
 O      2   1   0     2.716656434946   113.47052567     0.00000000
 H      1   2   3     2.051695042679   109.93061032   185.03398041
 H      1   2   3     2.051553430211   110.38799196   304.88356364
 H      1   2   3     2.052108582858   110.89387354    65.16569903
 H      2   1   3     2.068001712422   109.20330804   117.73457863
 H      2   1   3     2.071900848920   109.57594704   235.01990508
 H      3   2   1     2.015919074980   104.24683152   293.27933537
 H      9   3   2     2.078663998201   175.79317415   343.53316537

---------------------
BASIS SET INFORMATION
---------------------
There are 3 groups of distinct atoms

 Group   1 Type C   : 6s3p contracted to 2s1p pattern {33/3}
 Group   2 Type O   : 6s3p contracted to 2s1p pattern {33/3}
 Group   3 Type H   : 3s contracted to 1s pattern {3}

Atom   0C    basis set group =>   1
Atom   1C    basis set group =>   1
Atom   2O    basis set group =>   2
Atom   3H    basis set group =>   3
Atom   4H    basis set group =>   3
Atom   5H    basis set group =>   3
Atom   6H    basis set group =>   3
Atom   7H    basis set group =>   3
Atom   8H    basis set group =>   3
Atom   9H    basis set group =>   3
------------------------------------------------------------------------------
                           ORCA GTO INTEGRAL CALCULATION
------------------------------------------------------------------------------

                         BASIS SET STATISTICS AND STARTUP INFO

 # of primitive gaussian shells          ...   48
 # of primitive gaussian functions       ...   66
 # of contracted shells                  ...   16
 # of contracted basis functions         ...   22
 Highest angular momentum                ...    1
 Maximum contraction depth               ...    3
 Integral package used                   ... LIBINT
 Integral threshhold            Thresh   ...  2.500e-11
 Primitive cut-off              TCut     ...  2.500e-12


------------------------------ INTEGRAL EVALUATION ----------------------------


 * One electron integrals 
 Pre-screening matrix                    ... done
 Shell pair data                         ... done (   0.000 sec)

-------------------------------------------------------------------------------
                                 ORCA SCF
-------------------------------------------------------------------------------

------------
SCF SETTINGS
------------
Hamiltonian:
 Ab initio Hamiltonian  Method          .... Hartree-Fock(GTOs)


General Settings:
 Integral files         IntName         .... TSC_1
 Hartree-Fock type      HFTyp           .... UHF
 Total Charge           Charge          ....    0
 Multiplicity           Mult            ....    2
 Number of Electrons    NEL             ....   27
 Basis Dimension        Dim             ....   22
 Nuclear Repulsion      ENuc            ....     85.8023255495 Eh

Convergence Acceleration:
 DIIS                   CNVDIIS         .... on
   Start iteration      DIISMaxIt       ....    12
   Startup error        DIISStart       ....  0.200000
   # of expansion vecs  DIISMaxEq       ....     5
   Bias factor          DIISBfac        ....   1.050
   Max. coefficient     DIISMaxC        ....  10.000
 Newton-Raphson         CNVNR           .... off
 SOSCF                  CNVSOSCF        .... off
 Level Shifting         CNVShift        .... on
   Level shift para.    LevelShift      ....    0.2500
   Turn off err/grad.   ShiftErr        ....    0.0010
 Zerner damping         CNVZerner       .... off
 Static damping         CNVDamp         .... on
   Fraction old density DampFac         ....    0.7000
   Max. Damping (<1)    DampMax         ....    0.9800
   Min. Damping (>=0)   DampMin         ....    0.0000
   Turn off err/grad.   DampErr         ....    0.1000
 Fernandez-Rico         CNVRico         .... off

SCF Procedure:
 Maximum # iterations   MaxIter         ....   125
 SCF integral mode      SCFMode         .... Direct
   Integral package                     .... LIBINT
 Reset frequeny         DirectResetFreq ....    20
 Integral Threshold     Thresh          ....  2.500e-11 Eh
 Primitive CutOff       TCut            ....  2.500e-12 Eh

Convergence Tolerance:
 Convergence Check Mode ConvCheckMode   .... Total+1el-Energy
 Convergence forced     ConvForced      .... 0
 Energy Change          TolE            ....  1.000e-08 Eh
 1-El. energy change                    ....  1.000e-05 Eh
 DIIS Error             TolErr          ....  5.000e-07


Diagonalization of the overlap matrix:
Smallest eigenvalue                        ... 2.129e-01
Time for diagonalization                   ...    0.000 sec
Threshold for overlap eigenvalues          ... 1.000e-08
Number of eigenvalues below threshold      ... 0
Time for construction of square roots      ...    0.000 sec
Total time needed                          ...    0.000 sec

-------------------
DFT GRID GENERATION
-------------------

General Integration Accuracy     IntAcc      ...  4.340
Radial Grid Type                 RadialGrid  ... Gauss-Chebyshev
Angular Grid (max. acc.)         AngularGrid ... Lebedev-110
Angular grid pruning method      GridPruning ... 3 (G Style)
Weight generation scheme         WeightScheme... Becke
Basis function cutoff            BFCut       ...    1.0000e-11
Integration weight cutoff        WCut        ...    1.0000e-14
Grids for H and He will be reduced by one unit

# of grid points (after initial pruning)     ...  10586 (   0.0 sec)
# of grid points (after weights+screening)   ...  10080 (   0.0 sec)
nearest neighbour list constructed           ...    0.0 sec
Grid point re-assignment to atoms done       ...    0.0 sec
Grid point division into batches done        ...    0.0 sec
Reduced shell lists constructed in    0.1 sec

Total number of grid points                  ...    10080
Total number of batches                      ...      164
Average number of points per batch           ...       61
Average number of grid points per atom       ...     1008
Average number of shells per batch           ...    13.67 (85.45%)
Average number of basis functions per batch  ...    19.45 (88.43%)
Average number of large shells per batch     ...    12.73 (93.13%)
Average number of large basis fcns per batch ...    18.24 (93.74%)
Maximum spatial batch extension              ...  23.25, 20.69, 22.00 au
Average spatial batch extension              ...   4.06,  3.86,  4.05 au

Time for grid setup =    0.062 sec

------------------------------
INITIAL GUESS: MODEL POTENTIAL
------------------------------
Loading Hartree-Fock densities                     ... done
Calculating cut-offs                               ... done
Setting up the integral package                    ... done
Initializing the effective Hamiltonian             ... done
Starting the Coulomb interaction                   ... done (   0.0 sec)
Reading the grid                                   ... done
Mapping shells                                     ... done
Starting the XC term evaluation                    ... done (   0.1 sec)
Transforming the Hamiltonian                       ... done (   0.0 sec)
Diagonalizing the Hamiltonian                      ... done (   0.0 sec)
Back transforming the eigenvectors                 ... done (   0.0 sec)
Now organizing SCF variables                       ... done
                      ------------------
                      INITIAL GUESS DONE (   0.2 sec)
                      ------------------
--------------
SCF ITERATIONS
--------------
ITER       Energy         Delta-E        Max-DP      RMS-DP      [F,P]     Damp
               ***  Starting incremental Fock matrix formation  ***
  0   -152.4864249897   0.000000000000 0.03666342  0.00407288  0.1192351 0.7000
  1   -152.5144516442  -0.028026654451 0.03328148  0.00348867  0.0891361 0.7000
                               ***Turning on DIIS***
  2   -152.5345660806  -0.020114436461 0.08618633  0.00844990  0.0628342 0.0000
  3   -152.5359454825  -0.001379401840 0.02371837  0.00177646  0.0079937 0.0000
  4   -152.5797334699  -0.043787987381 0.02091027  0.00117647  0.0030448 0.0000
  5   -152.5858017733  -0.006068303479 0.01321085  0.00070150  0.0013085 0.0000
  6   -152.5874179728  -0.001616199412 0.00665019  0.00036576  0.0009580 0.0000
  7   -152.5866148632   0.000803109600 0.00272461  0.00020141  0.0009525 0.0000
  8   -152.5871692298  -0.000554366612 0.00219339  0.00017197  0.0005715 0.0000
  9   -152.5862759728   0.000893256937 0.00077392  0.00006405  0.0001749 0.0000
 10   -152.5858446760   0.000431296838 0.00020660  0.00002057  0.0000560 0.0000
 11   -152.5857417525   0.000102923479 0.00010215  0.00000977  0.0000246 0.0000
 12   -152.5856907631   0.000050989411 0.00004993  0.00000362  0.0000087 0.0000
 13   -152.5856739283   0.000016834803 0.00003270  0.00000201  0.0000063 0.0000
 14   -152.5856675872   0.000006341132 0.00002131  0.00000130  0.0000034 0.0000
 15   -152.5856634395   0.000004147712 0.00000871  0.00000051  0.0000016 0.0000
 16   -152.5856621681   0.000001271320 0.00000441  0.00000035  0.0000011 0.0000
                            ***DIIS convergence achieved***

               *****************************************************
               *                     SUCCESS                       *
               *           SCF CONVERGED AFTER  17 CYCLES          *
               *****************************************************


----------------
TOTAL SCF ENERGY
----------------

Total Energy       :         -152.58566090 Eh           -4152.06692 eV

Components:
Nuclear Repulsion  :           85.80232555 Eh            2334.79998 eV
Electronic Energy  :         -238.38798645 Eh           -6486.86690 eV
One Electron Energy:         -378.47686817 Eh          -10298.87917 eV
Two Electron Energy:          140.08888171 Eh            3812.01227 eV

Virial components:
Potential Energy   :         -304.17137387 Eh           -8276.92387 eV
Kinetic Energy     :          151.58571296 Eh            4124.85695 eV
Virial Ratio       :            2.00659658


---------------
SCF CONVERGENCE
---------------

  Last Energy change         ...    1.2660e-06  Tolerance :   1.0000e-08
  Last MAX-Density change    ...    3.5822e-06  Tolerance :   1.0000e-07
  Last RMS-Density change    ...    3.2274e-07  Tolerance :   5.0000e-09
  Last DIIS Error            ...    7.8924e-07  Tolerance :   5.0000e-07

             **** THE GBW FILE WAS UPDATED (TSC_1.gbw) ****
             **** DENSITY FILE WAS UPDATED (TSC_1.scfp.tmp) ****
             **** ENERGY FILE WAS UPDATED (TSC_1.en.tmp) ****
----------------------
UHF SPIN CONTAMINATION
----------------------

Expectation value of <S**2>     :     0.788411
Ideal value S*(S+1) for S=0.5   :     0.750000
Deviation                       :     0.038411

----------------
ORBITAL ENERGIES
----------------
                 SPIN UP ORBITALS
  NO   OCC          E(Eh)            E(eV) 
   0   1.0000     -20.269161      -551.5519 
   1   1.0000     -11.090908      -301.7989 
   2   1.0000     -11.043362      -300.5052 
   3   1.0000      -1.295508       -35.2526 
   4   1.0000      -0.967896       -26.3378 
   5   1.0000      -0.806228       -21.9386 
   6   1.0000      -0.663871       -18.0648 
   7   1.0000      -0.575855       -15.6698 
   8   1.0000      -0.565072       -15.3764 
   9   1.0000      -0.510495       -13.8913 
  10   1.0000      -0.488012       -13.2795 
  11   1.0000      -0.452543       -12.3143 
  12   1.0000      -0.382359       -10.4045 
  13   1.0000      -0.363907        -9.9024 
  14   0.0000       0.572687        15.5836 
  15   0.0000       0.636531        17.3209 
  16   0.0000       0.663989        18.0681 
  17   0.0000       0.707556        19.2536 
  18   0.0000       0.738235        20.0884 
  19   0.0000       0.752418        20.4743 
  20   0.0000       0.766454        20.8563 
  21   0.0000       0.788964        21.4688 

                 SPIN DOWN ORBITALS
  NO   OCC          E(Eh)            E(eV) 
   0   1.0000     -20.257655      -551.2388 
   1   1.0000     -11.092118      -301.8319 
   2   1.0000     -11.043260      -300.5024 
   3   1.0000      -1.242066       -33.7983 
   4   1.0000      -0.963764       -26.2253 
   5   1.0000      -0.799788       -21.7633 
   6   1.0000      -0.614573       -16.7234 
   7   1.0000      -0.566514       -15.4156 
   8   1.0000      -0.531865       -14.4728 
   9   1.0000      -0.500733       -13.6256 
  10   1.0000      -0.473521       -12.8852 
  11   1.0000      -0.389966       -10.6115 
  12   1.0000      -0.348112        -9.4726 
  13   0.0000       0.214518         5.8373 
  14   0.0000       0.588174        16.0050 
  15   0.0000       0.639715        17.4075 
  16   0.0000       0.663536        18.0557 
  17   0.0000       0.713445        19.4138 
  18   0.0000       0.748202        20.3596 
  19   0.0000       0.764242        20.7961 
  20   0.0000       0.766791        20.8654 
  21   0.0000       0.861675        23.4474 

                    ********************************
                    * MULLIKEN POPULATION ANALYSIS *
                    ********************************

--------------------------------------------
MULLIKEN ATOMIC CHARGES AND SPIN POPULATIONS
--------------------------------------------
   0 C :   -0.189612    0.005087
   1 C :    0.000353   -0.044563
   2 O :   -0.240593    0.442340
   3 H :    0.064384   -0.001376
   4 H :    0.067147   -0.000493
   5 H :    0.058938   -0.000776
   6 H :    0.066000    0.016146
   7 H :    0.052136    0.004918
   8 H :    0.120425   -0.229151
   9 H :    0.000821    0.807868
Sum of atomic charges         :    0.0000000
Sum of atomic spin populations:    1.0000000

-----------------------------------------------------
MULLIKEN REDUCED ORBITAL CHARGES AND SPIN POPULATIONS
-----------------------------------------------------
CHARGE
  0 C s       :     3.179208  s :     3.179208
      pz      :     1.023484  p :     3.010404
      px      :     0.984453
      py      :     1.002466
  1 C s       :     3.169988  s :     3.169988
      pz      :     0.988749  p :     2.829659
      px      :     0.855793
      py      :     0.985117
  2 O s       :     3.859976  s :     3.859976
      pz      :     1.661120  p :     4.380617
      px      :     1.422727
      py      :     1.296771
  3 H s       :     0.935616  s :     0.935616
  4 H s       :     0.932853  s :     0.932853
  5 H s       :     0.941062  s :     0.941062
  6 H s       :     0.934000  s :     0.934000
  7 H s       :     0.947864  s :     0.947864
  8 H s       :     0.879575  s :     0.879575
  9 H s       :     0.999179  s :     0.999179

SPIN
  0 C s       :     0.000689  s :     0.000689
      pz      :     0.000441  p :     0.004398
      px      :     0.001842
      py      :     0.002116
  1 C s       :    -0.009121  s :    -0.009121
      pz      :    -0.008145  p :    -0.035442
      px      :    -0.016503
      py      :    -0.010794
  2 O s       :     0.004264  s :     0.004264
      pz      :     0.133732  p :     0.438076
      px      :     0.015699
      py      :     0.288645
  3 H s       :    -0.001376  s :    -0.001376
  4 H s       :    -0.000493  s :    -0.000493
  5 H s       :    -0.000776  s :    -0.000776
  6 H s       :     0.016146  s :     0.016146
  7 H s       :     0.004918  s :     0.004918
  8 H s       :    -0.229151  s :    -0.229151
  9 H s       :     0.807868  s :     0.807868


                     *******************************
                     * LOEWDIN POPULATION ANALYSIS *
                     *******************************

-------------------------------------------
LOEWDIN ATOMIC CHARGES AND SPIN POPULATIONS
-------------------------------------------
   0 C :   -0.101053    0.004086
   1 C :    0.046825   -0.035956
   2 O :   -0.180765    0.418378
   3 H :    0.033761   -0.001149
   4 H :    0.035079   -0.000407
   5 H :    0.028840   -0.000590
   6 H :    0.030806    0.013781
   7 H :    0.017467    0.003942
   8 H :    0.094336   -0.168985
   9 H :   -0.005297    0.766898

----------------------------------------------------
LOEWDIN REDUCED ORBITAL CHARGES AND SPIN POPULATIONS
----------------------------------------------------
CHARGE
  0 C s       :     3.003406  s :     3.003406
      pz      :     1.047672  p :     3.097646
      px      :     1.018383
      py      :     1.031592
  1 C s       :     3.029706  s :     3.029706
      pz      :     1.013429  p :     2.923469
      px      :     0.900153
      py      :     1.009887
  2 O s       :     3.757112  s :     3.757112
      pz      :     1.668922  p :     4.423653
      px      :     1.441257
      py      :     1.313474
  3 H s       :     0.966239  s :     0.966239
  4 H s       :     0.964921  s :     0.964921
  5 H s       :     0.971160  s :     0.971160
  6 H s       :     0.969194  s :     0.969194
  7 H s       :     0.982533  s :     0.982533
  8 H s       :     0.905664  s :     0.905664
  9 H s       :     1.005297  s :     1.005297

SPIN
  0 C s       :     0.000316  s :     0.000316
      pz      :     0.000339  p :     0.003770
      px      :     0.001482
      py      :     0.001950
  1 C s       :    -0.006199  s :    -0.006199
      pz      :    -0.006742  p :    -0.029757
      px      :    -0.014242
      py      :    -0.008773
  2 O s       :    -0.005028  s :    -0.005028
      pz      :     0.129809  p :     0.423406
      px      :     0.013854
      py      :     0.279744
  3 H s       :    -0.001149  s :    -0.001149
  4 H s       :    -0.000407  s :    -0.000407
  5 H s       :    -0.000590  s :    -0.000590
  6 H s       :     0.013781  s :     0.013781
  7 H s       :     0.003942  s :     0.003942
  8 H s       :    -0.168985  s :    -0.168985
  9 H s       :     0.766898  s :     0.766898


                      *****************************
                      * MAYER POPULATION ANALYSIS *
                      *****************************

  NA   - Mulliken gross atomic population
  ZA   - Total nuclear charge
  QA   - Mulliken gross atomic charge
  VA   - Mayer's total valence
  BVA  - Mayer's bonded valence
  FA   - Mayer's free valence

  ATOM       NA         ZA         QA         VA         BVA        FA
  0 C      6.1896     6.0000    -0.1896     3.9652     3.9652     0.0000
  1 C      5.9996     6.0000     0.0004     3.9324     3.9316     0.0009
  2 O      8.2406     8.0000    -0.2406     2.0426     1.8660     0.1766
  3 H      0.9356     1.0000     0.0644     0.9959     0.9959     0.0000
  4 H      0.9329     1.0000     0.0671     0.9955     0.9955     0.0000
  5 H      0.9411     1.0000     0.0589     0.9965     0.9965     0.0000
  6 H      0.9340     1.0000     0.0660     0.9956     0.9954     0.0003
  7 H      0.9479     1.0000     0.0521     0.9973     0.9973     0.0000
  8 H      0.8796     1.0000     0.1204     0.9855     0.9330     0.0525
  9 H      0.9992     1.0000     0.0008     1.0000     0.3473     0.6527

  Mayer bond orders larger than 0.1
B(  0-C ,  1-C ) :   0.9878 B(  0-C ,  3-H ) :   0.9821 B(  0-C ,  4-H ) :   0.9828 
B(  0-C ,  5-H ) :   0.9830 B(  1-C ,  2-O ) :   0.9942 B(  1-C ,  6-H ) :   0.9689 
B(  1-C ,  7-H ) :   0.9655 B(  2-O ,  8-H ) :   0.6980 B(  2-O ,  9-H ) :   0.1193 
B(  8-H ,  9-H ) :   0.2211 

-------
TIMINGS
-------

Total SCF time: 0 days 0 hours 0 min 2 sec 

Total time                  ....       2.022 sec
Sum of individual times     ....       2.019 sec  ( 99.8%)

Fock matrix formation       ....       1.814 sec  ( 89.7%)
Diagonalization             ....       0.004 sec  (  0.2%)
Density matrix formation    ....       0.000 sec  (  0.0%)
Population analysis         ....       0.001 sec  (  0.0%)
Initial guess               ....       0.137 sec  (  6.8%)
Orbital Transformation      ....       0.000 sec  (  0.0%)
Orbital Orthonormalization  ....       0.000 sec  (  0.0%)
DIIS solution               ....       0.002 sec  (  0.1%)

-------------------------   --------------------
FINAL SINGLE POINT ENERGY      -152.585660902116
-------------------------   --------------------

------------------------------------------------------------------------------
                         ORCA SCF GRADIENT CALCULATION
------------------------------------------------------------------------------

Gradient of the Hartree-Fock SCF energy:
Hartree-Fock type                ... UHF
Number of operators              ...    2
Number of atoms                  ...   10
Basis set dimensions             ...   22
Integral neglect threshold       ... 2.5e-11
Integral primitive cutoff        ... 2.5e-12

Nuclear repulsion gradient       ... done
One Electron Gradient            ... done
Pre-screening matrix             ... done
Starting the two electron gradient:
Two electron gradient done

------------------
CARTESIAN GRADIENT
------------------

   1   C   :    0.000001585    0.000002059    0.000001089
   2   C   :   -0.000002758   -0.000004857   -0.000002217
   3   O   :   -0.000007427    0.000003427    0.000003684
   4   H   :   -0.000000405   -0.000000331   -0.000000342
   5   H   :    0.000000322   -0.000000339   -0.000000317
   6   H   :    0.000000167    0.000000133    0.000000195
   7   H   :    0.000002542   -0.000000125    0.000000172
   8   H   :    0.000000611    0.000000458    0.000000069
   9   H   :    0.000010416    0.000005226    0.000002057
  10   H   :   -0.000005052   -0.000005650   -0.000004390

Difference to translation invariance:
           :   -0.0000000000    0.0000000000    0.0000000000

Norm of the cartesian gradient     ...    0.0000186855
RMS gradient                       ...    0.0000034115
MAX gradient                       ...    0.0000104159

-------
TIMINGS
-------

Total SCF gradient time            ...        0.129 sec

One electron gradient       ....       0.004 sec  (  3.4%)
Prescreening matrices       ....       0.002 sec  (  1.6%)
Two electron gradient       ....       0.062 sec  ( 48.3%)
------------------------------------------------------------------------------
                         ORCA GEOMETRY RELAXATION STEP
------------------------------------------------------------------------------

Reading the OPT-File                    .... done
Getting information on internals        .... done
Copying old internal coords+grads       .... done
Making the new internal coordinates     .... (new redundants).... done
Validating the new internal coordinates .... (new redundants).... done
Calculating the B-matrix                .... done
Calculating the G,G- and P matrices     .... done
Transforming gradient to internals      .... done
Projecting the internal gradient        .... done
Number of atoms                         ....  10
Number of internal coordinates          ....  36
Current Energy                          ....  -152.585660902 Eh
Current gradient norm                   ....     0.000018685 Eh/bohr
Maximum allowed component of the step   ....  0.300
Current trust radius                    ....  0.300
Evaluating the initial hessian          ....  (Almloef) done
Projecting the Hessian                  .... done
Forming the augmented Hessian           .... done
Diagonalizing the augmented Hessian     .... done
Last element of RFO vector              ....  0.999999986
Lowest eigenvalues of augmented Hessian:
 -0.000000002  0.009937850  0.017399813  0.066458696  0.095172978
Length of the computed step             ....  0.000164764
The final length of the internal step   ....  0.000164764
Converting the step to cartesian space:
 Initial RMS(Int)=    0.0000274607
Transforming coordinates:
 Iter   0:  RMS(Cart)=    0.0000408513 RMS(Int)=    0.0000274258
 Iter   1:  RMS(Cart)=    0.0000005413 RMS(Int)=    0.0000004010
 Iter   2:  RMS(Cart)=    0.0000002707 RMS(Int)=    0.0000002005
 Iter   3:  RMS(Cart)=    0.0000001354 RMS(Int)=    0.0000001003
 Iter   4:  RMS(Cart)=    0.0000000677 RMS(Int)=    0.0000000501
done
Storing new coordinates                 .... done

                                .--------------------.
          ----------------------|Geometry convergence|-------------------------
          Item                value                   Tolerance       Converged
          ---------------------------------------------------------------------
          RMS gradient        0.0000024203            0.0001000000      YES
          MAX gradient        0.0000107166            0.0003000000      YES
          RMS step            0.0000274607            0.0020000000      YES
          MAX step            0.0000998331            0.0040000000      YES
          ........................................................
          Max(Bonds)      0.0001      Max(Angles)    0.00
          Max(Dihed)        0.00      Max(Improp)    0.00
          ---------------------------------------------------------------------

                    ***********************HURRAY********************
                    ***        THE OPTIMIZATION HAS CONVERGED     ***
                    *************************************************


    ---------------------------------------------------------------------------
                         Redundant Internal Coordinates

                          --- Optimized Parameters ---  
                            (Angstroem and degrees)

        Definition                    OldVal   dE/dq     Step     FinalVal
    ----------------------------------------------------------------------------
     1. B(C   1,C   0)                1.5467  0.000002 -0.0000    1.5467   
     2. B(O   2,C   1)                1.4376  0.000002 -0.0000    1.4376   
     3. B(H   3,C   0)                1.0857 -0.000000  0.0000    1.0857   
     4. B(H   4,C   0)                1.0856  0.000000 -0.0000    1.0856   
     5. B(H   5,C   0)                1.0859  0.000000 -0.0000    1.0859   
     6. B(H   6,C   1)                1.0943  0.000000 -0.0000    1.0943   
     7. B(H   7,C   1)                1.0964 -0.000000  0.0000    1.0964   
     8. B(H   8,O   2)                1.0668 -0.000002  0.0000    1.0668   
     9. B(H   9,H   8)                1.1000 -0.000007  0.0001    1.1000   
    10. A(C   1,C   0,H   5)          110.89  0.000000   -0.00    110.89   
    11. A(H   3,C   0,H   4)          108.65 -0.000000    0.00    108.65   
    12. A(H   3,C   0,H   5)          108.41  0.000000   -0.00    108.41   
    13. A(C   1,C   0,H   4)          110.39  0.000000   -0.00    110.39   
    14. A(H   4,C   0,H   5)          108.50  0.000000   -0.00    108.50   
    15. A(C   1,C   0,H   3)          109.93 -0.000001    0.00    109.93   
    16. A(C   0,C   1,O   2)          113.47  0.000000   -0.00    113.47   
    17. A(H   6,C   1,H   7)          107.32  0.000001   -0.00    107.32   
    18. A(O   2,C   1,H   7)          111.22  0.000000    0.00    111.22   
    19. A(C   0,C   1,H   7)          109.58 -0.000001    0.00    109.58   
    20. A(O   2,C   1,H   6)          105.79  0.000002   -0.00    105.79   
    21. A(C   0,C   1,H   6)          109.20 -0.000001    0.00    109.20   
    22. A(C   1,O   2,H   8)          104.25  0.000004   -0.00    104.25   
    23. L(O   2,H   8,H   9,C   1, 2) 181.59  0.000002   -0.00    181.59   
    24. L(O   2,H   8,H   9,C   1, 1) 175.95  0.000011   -0.00    175.95   
    25. D(H   6,C   1,C   0,H   5)   -177.10  0.000001   -0.00   -177.10   
    26. D(O   2,C   1,C   0,H   4)    -55.12 -0.000001    0.00    -55.12   
    27. D(H   6,C   1,C   0,H   3)    -57.23  0.000001   -0.00    -57.23   
    28. D(O   2,C   1,C   0,H   3)   -174.97 -0.000001    0.00   -174.97   
    29. D(O   2,C   1,C   0,H   5)     65.17 -0.000001    0.00     65.17   
    30. D(H   7,C   1,C   0,H   3)     60.05  0.000000   -0.00     60.05   
    31. D(H   7,C   1,C   0,H   4)    179.90 -0.000000   -0.00    179.90   
    32. D(H   7,C   1,C   0,H   5)    -59.81  0.000000   -0.00    -59.81   
    33. D(H   6,C   1,C   0,H   4)     62.62  0.000001   -0.00     62.62   
    34. D(H   8,O   2,C   1,H   7)     57.37  0.000000   -0.00     57.37   
    35. D(H   8,O   2,C   1,H   6)    173.58  0.000002   -0.00    173.58   
    36. D(H   8,O   2,C   1,C   0)    -66.72  0.000001   -0.00    -66.72   
    ----------------------------------------------------------------------------
                 *******************************************************
                 *** FINAL ENERGY EVALUATION AT THE STATIONARY POINT ***
                 ***               (AFTER    1 CYCLES)               ***
                 *******************************************************
---------------------------------
CARTESIAN COORDINATES (ANGSTROEM)
---------------------------------
  C      1.280742    0.341217   -0.082649
  C      0.036501   -0.506093    0.272711
  O     -1.185842    0.012668   -0.278134
  H      2.178217   -0.147041    0.284652
  H      1.364358    0.457498   -1.158795
  H      1.218666    1.327827    0.366783
  H      0.151409   -1.509064   -0.149690
  H     -0.034091   -0.616506    1.361253
  H     -1.333089    0.936891    0.233875
  H     -1.431209    1.864679    0.816677

----------------------------
CARTESIAN COORDINATES (A.U.)
----------------------------
  NO LB      ZA    FRAG     MASS         X           Y           Z
   0 C     6.0000    0    12.011    2.420251    0.644807   -0.156184
   1 C     6.0000    0    12.011    0.068977   -0.956377    0.515348
   2 O     8.0000    0    15.999   -2.240917    0.023939   -0.525597
   3 H     1.0000    0     1.008    4.116233   -0.277867    0.537914
   4 H     1.0000    0     1.008    2.578263    0.864545   -2.189806
   5 H     1.0000    0     1.008    2.302944    2.509230    0.693119
   6 H     1.0000    0     1.008    0.286122   -2.851718   -0.282872
   7 H     1.0000    0     1.008   -0.064422   -1.165028    2.572396
   8 H     1.0000    0     1.008   -2.519173    1.770468    0.441959
   9 H     1.0000    0     1.008   -2.704594    3.523732    1.543296

--------------------------------
INTERNAL COORDINATES (ANGSTROEM)
--------------------------------
 C      0   0   0     0.000000000000     0.00000000     0.00000000
 C      1   0   0     1.546722395853     0.00000000     0.00000000
 O      2   1   0     1.437590049273   113.47050467     0.00000000
 H      1   2   3     1.085710691731   109.93077044   185.03409998
 H      1   2   3     1.085634876039   110.38798129   304.88392621
 H      1   2   3     1.085928817351   110.89376210    65.16584632
 H      2   1   3     1.094338903352   109.20350800   117.73383805
 H      2   1   3     1.096402732962   109.57640888   235.01946616
 H      3   2   1     1.066781793446   104.24615157   293.27524264
 H      9   3   2     1.100034440958   175.79027623   343.54959299

---------------------------
INTERNAL COORDINATES (A.U.)
---------------------------
 C      0   0   0     0.000000000000     0.00000000     0.00000000
 C      1   0   0     2.922881733364     0.00000000     0.00000000
 O      2   1   0     2.716651485977   113.47050467     0.00000000
 H      1   2   3     2.051695868042   109.93077044   185.03409998
 H      1   2   3     2.051552597147   110.38798129   304.88392621
 H      1   2   3     2.052108065726   110.89376210    65.16584632
 H      2   1   3     2.068000825030   109.20350800   117.73383805
 H      2   1   3     2.071900897781   109.57640888   235.01946616
 H      3   2   1     2.015925434266   104.24615157   293.27524264
 H      9   3   2     2.078763831292   175.79027623   343.54959299

---------------------
BASIS SET INFORMATION
---------------------
There are 3 groups of distinct atoms

 Group   1 Type C   : 6s3p contracted to 2s1p pattern {33/3}
 Group   2 Type O   : 6s3p contracted to 2s1p pattern {33/3}
 Group   3 Type H   : 3s contracted to 1s pattern {3}

Atom   0C    basis set group =>   1
Atom   1C    basis set group =>   1
Atom   2O    basis set group =>   2
Atom   3H    basis set group =>   3
Atom   4H    basis set group =>   3
Atom   5H    basis set group =>   3
Atom   6H    basis set group =>   3
Atom   7H    basis set group =>   3
Atom   8H    basis set group =>   3
Atom   9H    basis set group =>   3
------------------------------------------------------------------------------
                           ORCA GTO INTEGRAL CALCULATION
------------------------------------------------------------------------------

                         BASIS SET STATISTICS AND STARTUP INFO

 # of primitive gaussian shells          ...   48
 # of primitive gaussian functions       ...   66
 # of contracted shells                  ...   16
 # of contracted basis functions         ...   22
 Highest angular momentum                ...    1
 Maximum contraction depth               ...    3
 Integral package used                   ... LIBINT
 Integral threshhold            Thresh   ...  2.500e-11
 Primitive cut-off              TCut     ...  2.500e-12


------------------------------ INTEGRAL EVALUATION ----------------------------


 * One electron integrals 
 Pre-screening matrix                    ... done
 Shell pair data                         ... done (   0.000 sec)

-------------------------------------------------------------------------------
                                 ORCA SCF
-------------------------------------------------------------------------------

------------
SCF SETTINGS
------------
Hamiltonian:
 Ab initio Hamiltonian  Method          .... Hartree-Fock(GTOs)


General Settings:
 Integral files         IntName         .... TSC_1
 Hartree-Fock type      HFTyp           .... UHF
 Total Charge           Charge          ....    0
 Multiplicity           Mult            ....    2
 Number of Electrons    NEL             ....   27
 Basis Dimension        Dim             ....   22
 Nuclear Repulsion      ENuc            ....     85.8023292269 Eh

Convergence Acceleration:
 DIIS                   CNVDIIS         .... on
   Start iteration      DIISMaxIt       ....    12
   Startup error        DIISStart       ....  0.200000
   # of expansion vecs  DIISMaxEq       ....     5
   Bias factor          DIISBfac        ....   1.050
   Max. coefficient     DIISMaxC        ....  10.000
 Newton-Raphson         CNVNR           .... off
 SOSCF                  CNVSOSCF        .... off
 Level Shifting         CNVShift        .... on
   Level shift para.    LevelShift      ....    0.2500
   Turn off err/grad.   ShiftErr        ....    0.0010
 Zerner damping         CNVZerner       .... off
 Static damping         CNVDamp         .... on
   Fraction old density DampFac         ....    0.7000
   Max. Damping (<1)    DampMax         ....    0.9800
   Min. Damping (>=0)   DampMin         ....    0.0000
   Turn off err/grad.   DampErr         ....    0.1000
 Fernandez-Rico         CNVRico         .... off

SCF Procedure:
 Maximum # iterations   MaxIter         ....   125
 SCF integral mode      SCFMode         .... Direct
   Integral package                     .... LIBINT
 Reset frequeny         DirectResetFreq ....    20
 Integral Threshold     Thresh          ....  2.500e-11 Eh
 Primitive CutOff       TCut            ....  2.500e-12 Eh

Convergence Tolerance:
 Convergence Check Mode ConvCheckMode   .... Total+1el-Energy
 Convergence forced     ConvForced      .... 0
 Energy Change          TolE            ....  1.000e-08 Eh
 1-El. energy change                    ....  1.000e-05 Eh
 DIIS Error             TolErr          ....  5.000e-07


Diagonalization of the overlap matrix:
Smallest eigenvalue                        ... 2.129e-01
Time for diagonalization                   ...    0.000 sec
Threshold for overlap eigenvalues          ... 1.000e-08
Number of eigenvalues below threshold      ... 0
Time for construction of square roots      ...    0.000 sec
Total time needed                          ...    0.000 sec

---------------------
INITIAL GUESS: MOREAD
---------------------
Guess MOs are being read from file: TSC_1.gbw
Input Geometry matches current geometry (good)
Input basis set matches current basis set (good)
MOs were renormalized
MOs were reorthogonalized (Cholesky)
                      ------------------
                      INITIAL GUESS DONE (   0.0 sec)
                      ------------------
--------------
SCF ITERATIONS
--------------
ITER       Energy         Delta-E        Max-DP      RMS-DP      [F,P]     Damp
               ***  Starting incremental Fock matrix formation  ***
  0   -152.5856638468   0.000000000000 0.00000215  0.00000029  0.0000088 0.7000
                 **** Energy Check signals convergence ****

               *****************************************************
               *                     SUCCESS                       *
               *           SCF CONVERGED AFTER   1 CYCLES          *
               *****************************************************


----------------
TOTAL SCF ENERGY
----------------

Total Energy       :         -152.58566385 Eh           -4152.06700 eV

Components:
Nuclear Repulsion  :           85.80232923 Eh            2334.80008 eV
Electronic Energy  :         -238.38799307 Eh           -6486.86708 eV
One Electron Energy:         -378.47687568 Eh          -10298.87937 eV
Two Electron Energy:          140.08888261 Eh            3812.01229 eV

Virial components:
Potential Energy   :         -304.17136993 Eh           -8276.92377 eV
Kinetic Energy     :          151.58570608 Eh            4124.85677 eV
Virial Ratio       :            2.00659665


---------------
SCF CONVERGENCE
---------------

  Last Energy change         ...   -1.7167e-10  Tolerance :   1.0000e-08
  Last MAX-Density change    ...    2.1440e-06  Tolerance :   1.0000e-07
  Last RMS-Density change    ...    2.8449e-07  Tolerance :   5.0000e-09
  Last DIIS Error            ...    7.2716e-06  Tolerance :   5.0000e-07

             **** THE GBW FILE WAS UPDATED (TSC_1.gbw) ****
             **** DENSITY FILE WAS UPDATED (TSC_1.scfp.tmp) ****
             **** ENERGY FILE WAS UPDATED (TSC_1.en.tmp) ****
----------------------
UHF SPIN CONTAMINATION
----------------------

Expectation value of <S**2>     :     0.788413
Ideal value S*(S+1) for S=0.5   :     0.750000
Deviation                       :     0.038413

----------------
ORBITAL ENERGIES
----------------
                 SPIN UP ORBITALS
  NO   OCC          E(Eh)            E(eV) 
   0   1.0000     -20.269162      -551.5520 
   1   1.0000     -11.090908      -301.7990 
   2   1.0000     -11.043362      -300.5052 
   3   1.0000      -1.295508       -35.2526 
   4   1.0000      -0.967896       -26.3378 
   5   1.0000      -0.806227       -21.9385 
   6   1.0000      -0.663867       -18.0647 
   7   1.0000      -0.575851       -15.6697 
   8   1.0000      -0.565072       -15.3764 
   9   1.0000      -0.510497       -13.8913 
  10   1.0000      -0.488010       -13.2794 
  11   1.0000      -0.452544       -12.3144 
  12   1.0000      -0.382363       -10.4046 
  13   1.0000      -0.363907        -9.9024 
  14   0.0000       0.572686        15.5836 
  15   0.0000       0.636529        17.3208 
  16   0.0000       0.663992        18.0682 
  17   0.0000       0.707556        19.2536 
  18   0.0000       0.738225        20.0881 
  19   0.0000       0.752413        20.4742 
  20   0.0000       0.766454        20.8563 
  21   0.0000       0.788957        21.4686 

                 SPIN DOWN ORBITALS
  NO   OCC          E(Eh)            E(eV) 
   0   1.0000     -20.257658      -551.2389 
   1   1.0000     -11.092118      -301.8319 
   2   1.0000     -11.043260      -300.5024 
   3   1.0000      -1.242068       -33.7984 
   4   1.0000      -0.963764       -26.2253 
   5   1.0000      -0.799787       -21.7633 
   6   1.0000      -0.614575       -16.7234 
   7   1.0000      -0.566515       -15.4156 
   8   1.0000      -0.531862       -14.4727 
   9   1.0000      -0.500734       -13.6257 
  10   1.0000      -0.473519       -12.8851 
  11   1.0000      -0.389966       -10.6115 
  12   1.0000      -0.348112        -9.4726 
  13   0.0000       0.214519         5.8373 
  14   0.0000       0.588173        16.0050 
  15   0.0000       0.639713        17.4075 
  16   0.0000       0.663539        18.0558 
  17   0.0000       0.713447        19.4139 
  18   0.0000       0.748203        20.3597 
  19   0.0000       0.764240        20.7960 
  20   0.0000       0.766790        20.8654 
  21   0.0000       0.861647        23.4466 

                    ********************************
                    * MULLIKEN POPULATION ANALYSIS *
                    ********************************

--------------------------------------------
MULLIKEN ATOMIC CHARGES AND SPIN POPULATIONS
--------------------------------------------
   0 C :   -0.189612    0.005087
   1 C :    0.000353   -0.044563
   2 O :   -0.240592    0.442330
   3 H :    0.064384   -0.001376
   4 H :    0.067147   -0.000493
   5 H :    0.058938   -0.000776
   6 H :    0.066000    0.016146
   7 H :    0.052136    0.004918
   8 H :    0.120424   -0.229152
   9 H :    0.000821    0.807879
Sum of atomic charges         :   -0.0000000
Sum of atomic spin populations:    1.0000000

-----------------------------------------------------
MULLIKEN REDUCED ORBITAL CHARGES AND SPIN POPULATIONS
-----------------------------------------------------
CHARGE
  0 C s       :     3.179207  s :     3.179207
      pz      :     1.023484  p :     3.010404
      px      :     0.984453
      py      :     1.002467
  1 C s       :     3.169987  s :     3.169987
      pz      :     0.988747  p :     2.829659
      px      :     0.855795
      py      :     0.985118
  2 O s       :     3.859976  s :     3.859976
      pz      :     1.661108  p :     4.380616
      px      :     1.422729
      py      :     1.296779
  3 H s       :     0.935616  s :     0.935616
  4 H s       :     0.932853  s :     0.932853
  5 H s       :     0.941062  s :     0.941062
  6 H s       :     0.934000  s :     0.934000
  7 H s       :     0.947864  s :     0.947864
  8 H s       :     0.879576  s :     0.879576
  9 H s       :     0.999179  s :     0.999179

SPIN
  0 C s       :     0.000689  s :     0.000689
      pz      :     0.000440  p :     0.004398
      px      :     0.001842
      py      :     0.002116
  1 C s       :    -0.009121  s :    -0.009121
      pz      :    -0.008145  p :    -0.035442
      px      :    -0.016503
      py      :    -0.010794
  2 O s       :     0.004264  s :     0.004264
      pz      :     0.133730  p :     0.438067
      px      :     0.015699
      py      :     0.288638
  3 H s       :    -0.001376  s :    -0.001376
  4 H s       :    -0.000493  s :    -0.000493
  5 H s       :    -0.000776  s :    -0.000776
  6 H s       :     0.016146  s :     0.016146
  7 H s       :     0.004918  s :     0.004918
  8 H s       :    -0.229152  s :    -0.229152
  9 H s       :     0.807879  s :     0.807879


                     *******************************
                     * LOEWDIN POPULATION ANALYSIS *
                     *******************************

-------------------------------------------
LOEWDIN ATOMIC CHARGES AND SPIN POPULATIONS
-------------------------------------------
   0 C :   -0.101053    0.004086
   1 C :    0.046826   -0.035956
   2 O :   -0.180762    0.418367
   3 H :    0.033761   -0.001149
   4 H :    0.035080   -0.000407
   5 H :    0.028840   -0.000590
   6 H :    0.030806    0.013781
   7 H :    0.017467    0.003942
   8 H :    0.094333   -0.168990
   9 H :   -0.005297    0.766916

----------------------------------------------------
LOEWDIN REDUCED ORBITAL CHARGES AND SPIN POPULATIONS
----------------------------------------------------
CHARGE
  0 C s       :     3.003406  s :     3.003406
      pz      :     1.047672  p :     3.097647
      px      :     1.018383
      py      :     1.031592
  1 C s       :     3.029705  s :     3.029705
      pz      :     1.013427  p :     2.923469
      px      :     0.900154
      py      :     1.009888
  2 O s       :     3.757112  s :     3.757112
      pz      :     1.668910  p :     4.423651
      px      :     1.441260
      py      :     1.313481
  3 H s       :     0.966239  s :     0.966239
  4 H s       :     0.964920  s :     0.964920
  5 H s       :     0.971160  s :     0.971160
  6 H s       :     0.969194  s :     0.969194
  7 H s       :     0.982533  s :     0.982533
  8 H s       :     0.905667  s :     0.905667
  9 H s       :     1.005297  s :     1.005297

SPIN
  0 C s       :     0.000316  s :     0.000316
      pz      :     0.000339  p :     0.003770
      px      :     0.001482
      py      :     0.001949
  1 C s       :    -0.006199  s :    -0.006199
      pz      :    -0.006742  p :    -0.029757
      px      :    -0.014242
      py      :    -0.008773
  2 O s       :    -0.005029  s :    -0.005029
      pz      :     0.129806  p :     0.423396
      px      :     0.013853
      py      :     0.279736
  3 H s       :    -0.001149  s :    -0.001149
  4 H s       :    -0.000407  s :    -0.000407
  5 H s       :    -0.000590  s :    -0.000590
  6 H s       :     0.013781  s :     0.013781
  7 H s       :     0.003942  s :     0.003942
  8 H s       :    -0.168990  s :    -0.168990
  9 H s       :     0.766916  s :     0.766916


                      *****************************
                      * MAYER POPULATION ANALYSIS *
                      *****************************

  NA   - Mulliken gross atomic population
  ZA   - Total nuclear charge
  QA   - Mulliken gross atomic charge
  VA   - Mayer's total valence
  BVA  - Mayer's bonded valence
  FA   - Mayer's free valence

  ATOM       NA         ZA         QA         VA         BVA        FA
  0 C      6.1896     6.0000    -0.1896     3.9652     3.9652     0.0000
  1 C      5.9996     6.0000     0.0004     3.9324     3.9316     0.0009
  2 O      8.2406     8.0000    -0.2406     2.0426     1.8661     0.1766
  3 H      0.9356     1.0000     0.0644     0.9959     0.9959     0.0000
  4 H      0.9329     1.0000     0.0671     0.9955     0.9955     0.0000
  5 H      0.9411     1.0000     0.0589     0.9965     0.9965     0.0000
  6 H      0.9340     1.0000     0.0660     0.9956     0.9954     0.0003
  7 H      0.9479     1.0000     0.0521     0.9973     0.9973     0.0000
  8 H      0.8796     1.0000     0.1204     0.9855     0.9330     0.0525
  9 H      0.9992     1.0000     0.0008     1.0000     0.3473     0.6527

  Mayer bond orders larger than 0.1
B(  0-C ,  1-C ) :   0.9878 B(  0-C ,  3-H ) :   0.9821 B(  0-C ,  4-H ) :   0.9828 
B(  0-C ,  5-H ) :   0.9830 B(  1-C ,  2-O ) :   0.9942 B(  1-C ,  6-H ) :   0.9689 
B(  1-C ,  7-H ) :   0.9655 B(  2-O ,  8-H ) :   0.6980 B(  2-O ,  9-H ) :   0.1193 
B(  8-H ,  9-H ) :   0.2211 

-------
TIMINGS
-------

Total SCF time: 0 days 0 hours 0 min 0 sec 

Total time                  ....       0.177 sec
Sum of individual times     ....       0.175 sec  ( 99.0%)

Fock matrix formation       ....       0.174 sec  ( 98.4%)
Diagonalization             ....       0.000 sec  (  0.2%)
Density matrix formation    ....       0.000 sec  (  0.0%)
Population analysis         ....       0.001 sec  (  0.3%)
Initial guess               ....       0.000 sec  (  0.1%)
Orbital Transformation      ....       0.000 sec  (  0.0%)
Orbital Orthonormalization  ....       0.000 sec  (  0.0%)
DIIS solution               ....       0.000 sec  (  0.0%)

-------------------------   --------------------
FINAL SINGLE POINT ENERGY      -152.585663847007
-------------------------   --------------------

                                *** OPTIMIZATION RUN DONE ***

                            ***************************************
                            *     ORCA property calculations      *
                            ***************************************

                                    ---------------------
                                    Active property flags
                                    ---------------------
   (+) Dipole Moment


------------------------------------------------------------------------------
                       ORCA ELECTRIC PROPERTIES CALCULATION
------------------------------------------------------------------------------

Dipole Moment Calculation                       ... on
Quadrupole Moment Calculation                   ... off
Polarizability Calculation                      ... off
GBWName                                         ... TSC_1.gbw
Electron density file                           ... TSC_1.scfp.tmp
The origin for moment calculation is the CENTER OF MASS  = (-0.040933,  0.022284 -0.015986)

-------------
DIPOLE MOMENT
-------------
                                X             Y             Z
Electronic contribution:     -1.71935      -1.95813      -1.35716
Nuclear contribution   :      2.10858       2.09378       1.69784
                        -----------------------------------------
Total Dipole Moment    :      0.38924       0.13565       0.34067
                        -----------------------------------------
Magnitude (a.u.)       :      0.53476
Magnitude (Debye)      :      1.35924


-------------------------------------------------------------------------------
                               ORCA SCF HESSIAN
-------------------------------------------------------------------------------

Hessian of the Hartree-Fock SCF energy:
Hartree-Fock type                                ... UHF
Number of operators                              ...    2
Number of atoms                                  ...   10
Basis set dimensions                             ...   22
Integral neglect threshold                       ... 2.5e-11
Integral primitive cutoff                        ... 2.5e-12

Nuclear repulsion Hessian                        ... done   (      0.0 sec)

----------------------------------------------
Forming right-hand sides of CP-SCF equations     ...
----------------------------------------------
One electron integral derivatives                ... done   (      0.1 sec)
Transforming the overlap derivative matrices     ... done   (      0.0 sec)
Making the Q(x) pseudodensities                  ... done   (      0.0 sec)
Adding the E*S(x)*S(y) terms to the Hessian      ... done   (      0.0 sec)
Calculating energy weighted overlap derivatives  ... done   (      0.0 sec)
Two electron integral derivatives                ... done   (      0.1 sec)
tr(F(y)Q(x)) contribution to the Hessian         ... done   (      0.0 sec)
Response fock operator R(S(x))                   ... done   (      0.1 sec)
tr(F(y)S(x)) contribution to the Hessian         ... done   (      0.0 sec)
Transforming and finalizing RHSs                 ... done   (      0.0 sec)

----------------------------------------------
Solving the CP-SCF equations                     ...
----------------------------------------------
     CP-SCF ITERATION   0: 
     CP-SCF ITERATION   1:      0.005109999316
     CP-SCF ITERATION   2:      0.000413738947
     CP-SCF ITERATION   3:      0.000078194847
     CP-SCF ITERATION   4:      0.000011143865
     CP-SCF ITERATION   5:      0.000002607320
     CP-SCF ITERATION   6:      0.000000555584
     CP-SCF ITERATION   7:      0.000000134289
     CP-SCF ITERATION   8:      0.000000011541
     CP-SCF ITERATION   9:      0.000000009809

                                                 ... done   (      1.1 sec)
Forming perturbed density Hessian contributions  ... done   (      0.0 sec)
Making the perturbed densities                   ... done   (      0.0 sec)
2nd integral derivative contribs                 ... done   (      0.4 sec)
Dipol derivatives                                ... done   (      0.1 sec)

Total SCF Hessian time: 0 days 0 hours 0 min 1 sec 

Writing the Hessian file to the disk             ... done


-----------------------
VIBRATIONAL FREQUENCIES
-----------------------

   0:         0.00 cm**-1
   1:         0.00 cm**-1
   2:         0.00 cm**-1
   3:         0.00 cm**-1
   4:         0.00 cm**-1
   5:         0.00 cm**-1
   6:     -2538.40 cm**-1 ***imaginary mode***
   7:       173.06 cm**-1
   8:       247.97 cm**-1
   9:       393.70 cm**-1
  10:       480.14 cm**-1
  11:       893.01 cm**-1
  12:       935.66 cm**-1
  13:      1063.96 cm**-1
  14:      1262.67 cm**-1
  15:      1270.97 cm**-1
  16:      1337.86 cm**-1
  17:      1510.31 cm**-1
  18:      1643.60 cm**-1
  19:      1685.72 cm**-1
  20:      1733.32 cm**-1
  21:      1805.44 cm**-1
  22:      1824.93 cm**-1
  23:      1836.47 cm**-1
  24:      1964.31 cm**-1
  25:      3561.98 cm**-1
  26:      3570.03 cm**-1
  27:      3678.99 cm**-1
  28:      3753.24 cm**-1
  29:      3757.89 cm**-1


------------
NORMAL MODES
------------

These modes are the cartesian displacements weighted by the diagonal matrix
M(i,i)=1/sqrt(m[i]) where m[i] is the mass of the displaced atom
Thus, these vectors are normalized but *not* orthogonal

                  0          1          2          3          4          5    
      0       0.000000   0.000000   0.000000   0.000000   0.000000   0.000000
      1       0.000000   0.000000   0.000000   0.000000   0.000000   0.000000
      2       0.000000   0.000000   0.000000   0.000000   0.000000   0.000000
      3       0.000000   0.000000   0.000000   0.000000   0.000000   0.000000
      4       0.000000   0.000000   0.000000   0.000000   0.000000   0.000000
      5       0.000000   0.000000   0.000000   0.000000   0.000000   0.000000
      6       0.000000   0.000000   0.000000   0.000000   0.000000   0.000000
      7       0.000000   0.000000   0.000000   0.000000   0.000000   0.000000
      8       0.000000   0.000000   0.000000   0.000000   0.000000   0.000000
      9       0.000000   0.000000   0.000000   0.000000   0.000000   0.000000
     10       0.000000   0.000000   0.000000   0.000000   0.000000   0.000000
     11       0.000000   0.000000   0.000000   0.000000   0.000000   0.000000
     12       0.000000   0.000000   0.000000   0.000000   0.000000   0.000000
     13       0.000000   0.000000   0.000000   0.000000   0.000000   0.000000
     14       0.000000   0.000000   0.000000   0.000000   0.000000   0.000000
     15       0.000000   0.000000   0.000000   0.000000   0.000000   0.000000
     16       0.000000   0.000000   0.000000   0.000000   0.000000   0.000000
     17       0.000000   0.000000   0.000000   0.000000   0.000000   0.000000
     18       0.000000   0.000000   0.000000   0.000000   0.000000   0.000000
     19       0.000000   0.000000   0.000000   0.000000   0.000000   0.000000
     20       0.000000   0.000000   0.000000   0.000000   0.000000   0.000000
     21       0.000000   0.000000   0.000000   0.000000   0.000000   0.000000
     22       0.000000   0.000000   0.000000   0.000000   0.000000   0.000000
     23       0.000000   0.000000   0.000000   0.000000   0.000000   0.000000
     24       0.000000   0.000000   0.000000   0.000000   0.000000   0.000000
     25       0.000000   0.000000   0.000000   0.000000   0.000000   0.000000
     26       0.000000   0.000000   0.000000   0.000000   0.000000   0.000000
     27       0.000000   0.000000   0.000000   0.000000   0.000000   0.000000
     28       0.000000   0.000000   0.000000   0.000000   0.000000   0.000000
     29       0.000000   0.000000   0.000000   0.000000   0.000000   0.000000
                  6          7          8          9         10         11    
      0      -0.000357   0.022896   0.016323   0.092500  -0.149945  -0.000246
      1      -0.000094  -0.035297  -0.024944  -0.028658  -0.007974  -0.002163
      2       0.000720  -0.032893  -0.020227   0.010685  -0.029761  -0.008056
      3      -0.008698  -0.006764  -0.008503   0.020664   0.017358   0.002834
      4       0.000564   0.030424   0.048596   0.026317  -0.153250  -0.012567
      5      -0.004321   0.021040   0.071435  -0.069803   0.064780  -0.022997
      6       0.001528   0.020440   0.024533  -0.055993   0.171205  -0.018723
      7       0.007851   0.036448  -0.006139   0.000696   0.111506  -0.011501
      8       0.006293  -0.036731  -0.054275   0.075339   0.003382   0.030617
      9       0.002051  -0.017747   0.054827   0.010107   0.036506  -0.010482
     10       0.005045   0.091352  -0.288053  -0.117658   0.261450   0.024990
     11       0.000375   0.235383  -0.464540   0.096943  -0.134924   0.052121
     12       0.000068   0.177865  -0.307404   0.218354  -0.357181   0.099196
     13      -0.000070  -0.332047   0.305885  -0.026782  -0.035258   0.103720
     14       0.000969  -0.052552  -0.010289   0.020748  -0.048529   0.011203
     15       0.003784  -0.071893   0.314277   0.141529  -0.368645  -0.092460
     16       0.003145   0.089085  -0.159889  -0.029614   0.004164  -0.048045
     17      -0.001380  -0.318320   0.317055   0.021326  -0.086973   0.081947
     18       0.017463  -0.027663  -0.013618  -0.011840  -0.051899  -0.063792
     19       0.000968  -0.006786  -0.008042   0.069373  -0.111984  -0.066954
     20       0.009549   0.103745   0.204526  -0.185095  -0.054898   0.089973
     21       0.012845  -0.027321  -0.044506   0.087985   0.002925   0.059539
     22       0.003232   0.118319   0.189333  -0.105212  -0.246397   0.121334
     23       0.003768   0.027086   0.082253  -0.077735   0.054440  -0.003330
     24       0.114162  -0.165741  -0.134066  -0.131886   0.166091   0.484832
     25      -0.667566  -0.122228  -0.065067   0.018403   0.089009   0.424271
     26      -0.394226   0.193336   0.000624   0.028869   0.059718  -0.598635
     27      -0.066734  -0.384145  -0.352071  -0.773946  -0.565307  -0.210504
     28       0.525025  -0.358133  -0.158565   0.208342   0.190288  -0.201265
     29       0.323976   0.535555   0.121636  -0.396411  -0.259786   0.250784
                 12         13         14         15         16         17    
      0       0.008071  -0.209371   0.017204   0.046450   0.042976   0.015405
      1      -0.016843  -0.046157   0.163033   0.000427   0.001965  -0.058335
      2      -0.030151  -0.009073  -0.067987  -0.077381   0.067120  -0.082931
      3       0.012651   0.026479  -0.124846  -0.116575  -0.121009  -0.027116
      4      -0.050354   0.139477  -0.141394   0.050049   0.065498   0.050375
      5      -0.062623  -0.080375   0.033966   0.072508  -0.153696   0.053582
      6      -0.005682   0.132246   0.035070   0.088664   0.107844  -0.002753
      7       0.021490  -0.040085   0.003700  -0.039219  -0.061727  -0.006314
      8       0.007667   0.049535   0.005881   0.020150   0.089387   0.005979
      9       0.016323  -0.589604  -0.294209   0.044324   0.217376   0.024876
     10       0.116796  -0.517595  -0.302755   0.122559   0.140365   0.093524
     11       0.128270   0.264156   0.088356   0.097942  -0.175750   0.097709
     12       0.265219   0.172976   0.425593   0.277679  -0.311425   0.200265
     13       0.325182  -0.056182   0.052746   0.281931  -0.135487   0.244238
     14       0.027649   0.028333  -0.056817  -0.033092   0.023670  -0.041482
     15      -0.329210   0.068336   0.558098  -0.173156   0.011778  -0.250927
     16      -0.160715  -0.104086   0.197489  -0.098670   0.105925  -0.180289
     17       0.241323   0.136509  -0.047382   0.120537  -0.160466   0.136542
     18      -0.161262   0.141359   0.039497  -0.616860  -0.248367   0.578265
     19      -0.264039   0.154950  -0.183926   0.134783  -0.040637   0.178719
     20       0.398304  -0.068251   0.152533  -0.277460   0.060275  -0.065037
     21       0.097650   0.238449  -0.207246   0.114410  -0.647021  -0.542623
     22       0.469587   0.172025  -0.052676  -0.273120   0.285746  -0.156944
     23      -0.005973  -0.068952   0.048367   0.064378  -0.169997   0.000730
     24      -0.058289   0.036103   0.256966  -0.300938   0.219453   0.203993
     25      -0.123237  -0.069338  -0.038184  -0.040385  -0.097520  -0.012391
     26       0.271223   0.033712   0.162083  -0.209182   0.104130   0.124971
     27       0.012827   0.012650  -0.052702   0.082864  -0.023683  -0.030614
     28       0.096032  -0.055525   0.010733  -0.106076  -0.082539   0.028198
     29      -0.077016  -0.045896  -0.035099  -0.024891  -0.069009   0.001392
                 18         19         20         21         22         23    
      0      -0.011738   0.022079  -0.137020  -0.001772   0.000415  -0.023701
      1       0.040447   0.030272  -0.067301  -0.023835   0.031637   0.039994
      2      -0.030567  -0.022254   0.026688   0.011208   0.048484  -0.026307
      3       0.142619   0.088850   0.084842   0.008104  -0.003346  -0.023997
      4      -0.036828   0.047955   0.019698   0.072846   0.010509   0.033643
      5      -0.006482   0.048874   0.012954  -0.039940   0.011378  -0.022159
      6      -0.000542  -0.044760  -0.015733  -0.000385  -0.000560   0.003252
      7       0.016053  -0.037494  -0.010962   0.001042  -0.003603   0.003508
      8       0.030756  -0.053106  -0.012137  -0.001467  -0.004029   0.003241
      9      -0.181480  -0.148873   0.232054  -0.035831   0.052418   0.140724
     10      -0.188974  -0.157823   0.406158  -0.051062  -0.373857   0.261679
     11       0.071649   0.139566  -0.245402   0.045306  -0.619208  -0.120103
     12       0.004674  -0.155298   0.507645  -0.048881   0.435086   0.144638
     13      -0.111497  -0.108350   0.185207   0.247086  -0.152617  -0.595855
     14      -0.046785  -0.048828   0.104582   0.034540   0.057759  -0.079014
     15      -0.052589  -0.138834   0.488212  -0.003762  -0.473880   0.094734
     16      -0.033806  -0.049750   0.051160   0.087112   0.080752  -0.228625
     17       0.119726   0.130823  -0.146930  -0.226241  -0.139688   0.573128
     18      -0.212230  -0.540042  -0.243631  -0.051841   0.000239   0.036162
     19      -0.120744   0.050964   0.025373  -0.213351   0.016406  -0.062338
     20       0.069757  -0.114910  -0.085685   0.615522   0.008368   0.228293
     21      -0.654707  -0.131203  -0.191711   0.043106   0.003359   0.073099
     22      -0.051180  -0.093067   0.022837  -0.649504  -0.038540  -0.225500
     23      -0.059390   0.020991  -0.007155  -0.104611   0.010420  -0.042336
     24      -0.502098   0.577773   0.095878   0.028259   0.030657   0.023162
     25       0.139380  -0.083076   0.001054  -0.008593   0.004575  -0.035204
     26      -0.287295   0.379971   0.077832   0.010923   0.023869  -0.003101
     27       0.047503  -0.074886  -0.016988  -0.000386  -0.004059   0.004224
     28       0.068917   0.104080   0.049423  -0.012227   0.018272  -0.047271
     29       0.085654   0.018105   0.023019  -0.009782   0.009129  -0.030807
                 24         25         26         27         28         29    
      0      -0.003462  -0.002381   0.042984  -0.001206  -0.048542   0.028750
      1      -0.000474   0.001002   0.029520   0.004644   0.080078  -0.005302
      2      -0.001234  -0.001336  -0.011175   0.006561   0.019679   0.091353
      3       0.040573  -0.000024  -0.002201   0.010557  -0.000617  -0.000588
      4      -0.007581  -0.055027  -0.005274  -0.056810   0.003721   0.002112
      5       0.014704   0.046624   0.003650  -0.076712   0.003420   0.004584
      6      -0.033006   0.000297  -0.000288   0.000498   0.000282  -0.000275
      7       0.081246   0.000261   0.000042  -0.000190   0.000063   0.000009
      8       0.032101   0.000403  -0.000033   0.000162   0.000068  -0.000073
      9      -0.023801   0.042020  -0.472772   0.007112   0.521913  -0.419884
     10      -0.035467  -0.026667   0.261530  -0.003000  -0.285082   0.232488
     11      -0.001194   0.019187  -0.194898   0.005154   0.217753  -0.169662
     12       0.013255   0.005440  -0.040480   0.000046   0.007497   0.060208
     13       0.023704   0.006259  -0.057242   0.004649   0.018296   0.083481
     14       0.002824  -0.026283   0.561326  -0.053527  -0.135537  -0.800461
     15      -0.019066   0.000603   0.037667   0.008586   0.045566   0.019144
     16       0.007625   0.032961  -0.531227  -0.050115  -0.682890  -0.252966
     17      -0.020072   0.011706  -0.244451  -0.024833  -0.314869  -0.112097
     18      -0.039386  -0.069547  -0.006429  -0.085923   0.001816   0.001478
     19       0.005323   0.555025   0.035250   0.721762  -0.049603  -0.031215
     20      -0.024205   0.238179   0.016450   0.306123  -0.018479  -0.013908
     21      -0.070729   0.049380   0.001078  -0.040355   0.003392   0.007540
     22       0.006845   0.071714   0.002342  -0.057368   0.001661   0.007140
     23       0.014243  -0.782758  -0.047662   0.597866  -0.024306  -0.045835
     24       0.154956  -0.003613   0.000045  -0.008600   0.001676   0.000491
     25      -0.550302  -0.000860  -0.000454   0.007663  -0.001959  -0.001074
     26      -0.227872  -0.006018  -0.000682   0.001867  -0.000960  -0.000014
     27       0.066435  -0.000333  -0.000504  -0.000200  -0.000591  -0.000192
     28      -0.651280   0.001171   0.000224   0.001030   0.000057   0.000017
     29      -0.413743  -0.000054   0.000097   0.000666   0.000082  -0.000019


-----------
IR SPECTRUM
-----------

 Mode    freq (cm**-1)   T**2         TX         TY         TZ
-------------------------------------------------------------------
   7:       173.06    5.814687  ( -1.398071  -0.873701   1.759753)
   8:       247.97    2.521779  ( -1.214409   0.066378   1.021070)
   9:       393.70    0.854779  (  0.453349   0.596123  -0.542117)
  10:       480.14    2.122623  ( -0.664446  -1.124215   0.645969)
  11:       893.01   35.201335  (  3.519570   2.522873  -4.055746)
  12:       935.66    6.536349  ( -0.627616  -0.723359   2.370485)
  13:      1063.96    0.095920  ( -0.084607   0.040884   0.295110)
  14:      1262.67    5.660069  ( -0.215552  -1.910593   1.401158)
  15:      1270.97   12.060996  ( -3.064616   1.461892   0.729379)
  16:      1337.86    5.290638  ( -0.424913   1.542898  -1.652135)
  17:      1510.31    1.191481  (  1.088597  -0.048564   0.063866)
  18:      1643.60   19.606534  (  2.996854  -2.198934  -2.406260)
  19:      1685.72   22.301045  (  4.533208  -1.212353   0.530352)
  20:      1733.32    5.535989  (  2.302755  -0.464263  -0.133303)
  21:      1805.44    1.920229  ( -0.316907   1.313620   0.306922)
  22:      1824.93    2.911872  (  0.429742  -1.138928  -1.195842)
  23:      1836.47    1.185815  (  0.022003   0.472515   0.980847)
  24:      1964.31  156.307135  ( -2.328398  10.984942   5.496976)
  25:      3561.98    8.500549  ( -0.122701  -2.176432   1.936140)
  26:      3570.03    0.541220  (  0.517782   0.509821   0.114912)
  27:      3678.99    3.432995  (  0.005806  -0.177431  -1.844310)
  28:      3753.24    1.108907  ( -0.312100   0.950084   0.329911)
  29:      3757.89    0.710078  (  0.157973   0.075410   0.824279)

The first frequency considered to be a vibration is 7
The total number of vibrations considered is 23


--------------------------
THERMOCHEMISTRY AT 298.15K
--------------------------

Temperature         ... 298.15 K
Pressure            ... 1.00 atm
Total Mass          ... 47.08 AMU

Throughout the following assumptions are being made:
  (1) The electronic state is orbitally nondegenerate
      but the spin degeneracy is treated
  (2) There are no thermally accessible electronically excited states
  (3) Hindered rotations indicated by low frequency modes are not
      treated as such but are treated as vibrations and this may
      cause some error
  (4) All equations used are the standard statistical mechanics
      equations for an ideal gas
  (5) All vibrations are strictly harmonic

freq.     173.06  E(vib)   ...       0.38 
freq.     247.97  E(vib)   ...       0.31 
freq.     393.70  E(vib)   ...       0.20 
freq.     480.14  E(vib)   ...       0.15 
freq.     893.01  E(vib)   ...       0.03 
freq.     935.66  E(vib)   ...       0.03 
freq.    1063.96  E(vib)   ...       0.02 
freq.    1262.67  E(vib)   ...       0.01 
freq.    1270.97  E(vib)   ...       0.01 
freq.    1337.86  E(vib)   ...       0.01 
freq.    1510.31  E(vib)   ...       0.00 
freq.    1643.60  E(vib)   ...       0.00 
freq.    1685.72  E(vib)   ...       0.00 
freq.    1733.32  E(vib)   ...       0.00 
freq.    1805.44  E(vib)   ...       0.00 
freq.    1824.93  E(vib)   ...       0.00 
freq.    1836.47  E(vib)   ...       0.00 
freq.    1964.31  E(vib)   ...       0.00 
freq.    3561.98  E(vib)   ...       0.00 
freq.    3570.03  E(vib)   ...       0.00 
freq.    3678.99  E(vib)   ...       0.00 
freq.    3753.24  E(vib)   ...       0.00 
freq.    3757.89  E(vib)   ...       0.00 

------------
INNER ENERGY
------------

The inner energy is: U= E(el) + E(ZPE) + E(vib) + E(rot) + E(trans)
    E(el)   - is the total energy from the electronic structure calculation
              = E(kin-el) + E(nuc-el) + E(el-el) + E(nuc-nuc)
    E(ZPE)  - the the zero temperature vibrational energy from the frequency calculation
    E(vib)  - the the finite temperature correction to E(ZPE) due to population
              of excited vibrational states
    E(rot)  - is the rotational thermal energy
    E(trans)- is the translational thermal energy

Summary of contributions to the inner energy U:
Electronic energy                ...   -152.58566385 Eh
Zero point energy                ...      0.09200438 Eh      57.73 kcal/mol
Thermal vibrational correction   ...      0.00183085 Eh       1.15 kcal/mol
Thermal rotational correction    ...      0.00141627 Eh       0.89 kcal/mol
Thermal translational correction ...      0.00141627 Eh       0.89 kcal/mol
-----------------------------------------------------------------------
Total thermal energy                   -152.48899607 Eh


Summary of corrections to the electronic energy:
(perhaps to be used in another calculation)
Total thermal correction                  0.00466339 Eh       2.93 kcal/mol
Non-thermal (ZPE) correction              0.09200438 Eh      57.73 kcal/mol
-----------------------------------------------------------------------
Total correction                          0.09666777 Eh      60.66 kcal/mol


--------
ENTHALPY
--------

The enthalpy is H = U + kB*T
                kB is Boltzmann's constant
Total free energy                 ...   -152.48899607 Eh 
Thermal Enthalpy correction       ...      0.00094421 Eh       0.59 kcal/mol
-----------------------------------------------------------------------
Total Enthalpy                    ...   -152.48805186 Eh


Vibrational entropy computed according to the QRRHO of S. Grimme
Chem.Eur.J. 2012 18 9955


-------
ENTROPY
-------

The entropy contributions are T*S = T*(S(el)+S(vib)+S(rot)+S(trans)
     S(el)   - electronic entropy
     S(vib)  - vibrational entropy
     S(rot)  - rotational entropy
     S(trans)- translational entropy
The entropies will be listed as mutliplied by the temperature to get
units of energy

Electronic entropy                ...      0.00065446 Eh      0.41 kcal/mol
Vibrational entropy               ...      0.00299484 Eh      1.88 kcal/mol
Rotational entropy                ...      0.00981000 Eh      6.16 kcal/mol
Translational entropy             ...      0.01780424 Eh     11.17 kcal/mol
-----------------------------------------------------------------------
Final entropy term                ...      0.03126355 Eh     19.62 kcal/mol


CAUTION: The rotational entropy is not quite correctly treated here
         because it includes a symmetry number that is not yet correctly
         implemented in ORCA!
For a nonlinear molecule the correct rotational entropy is:
    S(rot) = R*(ln(qrot/sn)+1.5)
    R    = 8.31441 J/mol/K = 1.987191683e-3 kcal/mol/K
    qrot = 21776.2083760
    sn is the rotational symmetry number. We have assumed 3 here
       if it is different for your molecule then you should correct
       the printed rotational entropy by manually evaluating the equation
       as given above

For convenience we print out the resulting values for sn=1 - 12:
 sn= 1  qrot/sn=   21776.2084 T*S(rot)=     6.81 kcal/mol T*S(tot)=    20.27 kcal/mol
 sn= 2  qrot/sn=   10888.1042 T*S(rot)=     6.40 kcal/mol T*S(tot)=    19.86 kcal/mol
 sn= 3  qrot/sn=    7258.7361 T*S(rot)=     6.16 kcal/mol T*S(tot)=    19.62 kcal/mol
 sn= 4  qrot/sn=    5444.0521 T*S(rot)=     5.99 kcal/mol T*S(tot)=    19.45 kcal/mol
 sn= 5  qrot/sn=    4355.2417 T*S(rot)=     5.85 kcal/mol T*S(tot)=    19.32 kcal/mol
 sn= 6  qrot/sn=    3629.3681 T*S(rot)=     5.75 kcal/mol T*S(tot)=    19.21 kcal/mol
 sn= 7  qrot/sn=    3110.8869 T*S(rot)=     5.65 kcal/mol T*S(tot)=    19.12 kcal/mol
 sn= 8  qrot/sn=    2722.0260 T*S(rot)=     5.57 kcal/mol T*S(tot)=    19.04 kcal/mol
 sn= 9  qrot/sn=    2419.5787 T*S(rot)=     5.50 kcal/mol T*S(tot)=    18.97 kcal/mol
 sn=10  qrot/sn=    2177.6208 T*S(rot)=     5.44 kcal/mol T*S(tot)=    18.90 kcal/mol
 sn=11  qrot/sn=    1979.6553 T*S(rot)=     5.39 kcal/mol T*S(tot)=    18.85 kcal/mol
 sn=12  qrot/sn=    1814.6840 T*S(rot)=     5.33 kcal/mol T*S(tot)=    18.80 kcal/mol


-------------------
GIBBS FREE ENTHALPY
-------------------

The Gibbs free enthalpy is G = H - T*S

Total enthalpy                    ...   -152.48805186 Eh 
Total entropy correction          ...     -0.03126355 Eh    -19.62 kcal/mol
-----------------------------------------------------------------------
Final Gibbs free enthalpy         ...   -152.51931541 Eh

For completeness - the Gibbs free enthalpy minus the electronic energy
G-E(el)                           ...      0.06634844 Eh     41.63 kcal/mol


Timings for individual modules:

Sum of individual times         ...        4.578 sec (=   0.076 min)
GTO integral calculation        ...        0.277 sec (=   0.005 min)   6.0 %
SCF iterations                  ...        2.220 sec (=   0.037 min)  48.5 %
SCF Gradient evaluation         ...        0.136 sec (=   0.002 min)   3.0 %
Geometry relaxation             ...        0.022 sec (=   0.000 min)   0.5 %
Analytical frequency calculation...        1.922 sec (=   0.032 min)  42.0 %
                             ****ORCA TERMINATED NORMALLY****
TOTAL RUN TIME: 0 days 0 hours 0 minutes 4 seconds 706 msec
