
                                 *****************
                                 * O   R   C   A *
                                 *****************

           --- An Ab Initio, DFT and Semiempirical electronic structure package ---

                  #######################################################
                  #                        -***-                        #
                  #  Department of molecular theory and spectroscopy    #
                  #              Directorship: Frank Neese              #
                  # Max Planck Institute for Chemical Energy Conversion #
                  #                  D-45470 Muelheim/Ruhr              #
                  #                       Germany                       #
                  #                                                     #
                  #                  All rights reserved                #
                  #                        -***-                        #
                  #######################################################


                         Program Version 4.0.1.2 - RELEASE -


 With contributions from (in alphabetic order):
   Daniel Aravena         : Magnetic Properties
   Michael Atanasov       : Ab Initio Ligand Field Theory
   Ute Becker             : Parallelization
   Martin Brehm           : Molecular dynamics
   Dmytro Bykov           : SCF Hessian
   Vijay G. Chilkuri      : MRCI spin determinant printing
   Dipayan Datta          : RHF DLPNO-CCSD density
   Achintya Kumar Dutta   : EOM-CC, STEOM-CC
   Dmitry Ganyushin       : Spin-Orbit,Spin-Spin,Magnetic field MRCI
   Yang Guo               : DLPNO-NEVPT2, CIM, IAO-localization
   Andreas Hansen         : Spin unrestricted coupled pair/coupled cluster methods
   Lee Huntington         : MR-EOM, pCC
   Robert Izsak           : Overlap fitted RIJCOSX, COSX-SCS-MP3, EOM
   Christian Kollmar      : KDIIS, OOCD, Brueckner-CCSD(T), CCSD density
   Simone Kossmann        : Meta GGA functionals, TD-DFT gradient, OOMP2, MP2 Hessian
   Martin Krupicka        : AUTO-CI
   Dagmar Lenk            : GEPOL surface
   Dimitrios Liakos       : Extrapolation schemes; parallel MDCI
   Dimitrios Manganas     : ROCIS; embedding schemes
   Dimitrios Pantazis     : SARC Basis sets
   Taras Petrenko         : DFT Hessian,TD-DFT gradient, ASA, ECA, R-Raman, ABS, FL, XAS/XES, NRVS
   Peter Pinski           : DLPNO-MP2
   Christoph Reimann      : Effective Core Potentials
   Marius Retegan         : Local ZFS, SOC
   Christoph Riplinger    : Optimizer, TS searches, QM/MM, DLPNO-CCSD(T), (RO)-DLPNO pert. Triples
   Tobias Risthaus        : Range-separated hybrids, TD-DFT gradient, RPA, STAB
   Michael Roemelt        : Restricted open shell CIS
   Masaaki Saitow         : Open-shell DLPNO
   Barbara Sandhoefer     : DKH picture change effects
   Kantharuban Sivalingam : CASSCF convergence, NEVPT2, FIC-MRCI
   Georgi Stoychev        : AutoAux
   Boris Wezisla          : Elementary symmetry handling
   Frank Wennmohs         : Technical directorship


 We gratefully acknowledge several colleagues who have allowed us to
 interface, adapt or use parts of their codes:
   Stefan Grimme, W. Hujo, H. Kruse,             : VdW corrections, initial TS optimization,
                  C. Bannwarth                     DFT functionals, gCP, sTDA/sTD-DF
   Ed Valeev                                     : LibInt (2-el integral package), F12 methods
   Garnet Chan, S. Sharma, J. Yang, R. Olivares  : DMRG
   Ulf Ekstrom                                   : XCFun DFT Library
   Mihaly Kallay                                 : mrcc  (arbitrary order and MRCC methods)
   Andreas Klamt, Michael Diedenhofen            : otool_cosmo (COSMO solvation model)
   Jiri Pittner, Ondrej Demel                    : Mk-CCSD
   Frank Weinhold                                : gennbo (NPA and NBO analysis)
   Christopher J. Cramer and Donald G. Truhlar   : smd solvation model


 Your calculation uses the libint2 library for the computation of 2-el integrals
 For citations please refer to: http://libint.valeyev.net

 This ORCA versions uses:
   CBLAS   interface :  Fast vector & matrix operations
   LAPACKE interface :  Fast linear algebra routines
   SCALAPACK package :  Parallel linear algebra routines


Your calculation utilizes the basis: STO-3G
   H-Ne       : W. J. Hehre, R. F. Stewart and J. A. Pople, J. Chem. Phys. 2657 (1969).
   Na-Ar      : W. J. Hehre, R. Ditchfield, R. F. Stewart and J. A. Pople, J. Chem. Phys. 2769 (1970).
   K,Ca,Ga-Kr : W. J. Pietro, B. A. Levy, W. J. Hehre and R. F. Stewart, J. Am. Chem. Soc. 19, 2225 (1980).
   Sc-Zn,Y-Cd : W. J. Pietro and W. J. Hehre, J. Comp. Chem. 4, 241 (1983).

================================================================================
                                        WARNINGS
                       Please study these warnings very carefully!
================================================================================

Warning: TCutStore was < 0. Adjusted to Thresh (uncritical)

WARNING: your system is open-shell and RHF/RKS was chosen
  ===> : WILL SWITCH to UHF/UKS


WARNING: Geometry Optimization
  ===> : Switching off AutoStart
         For restart on a previous wavefunction, please use MOREAD

INFO   : the flag for use of LIBINT has been found!

================================================================================
                                       INPUT FILE
================================================================================
NAME = TSC_2.inp
|  1> %pal nprocs 1 end
|  2> ! hf sto-3g TightSCF
|  3> ! Opt Freq
|  4> * xyz 0 2
|  5>   6     1.337186 -0.177551 -0.000200
|  6>   6     -0.028261 0.540278 -0.000516
|  7>   8     -1.058330 -0.463969 0.001294
|  8>   1     2.141571 0.551719 -0.001191
|  9>   1     1.434412 -0.803083 0.881806
| 10>   1     1.433872 -0.804892 -0.880978
| 11>   1     -0.102680 1.186015 0.882746
| 12>   1     -0.103506 1.183622 -0.885449
| 13>   1     -1.965270 0.096789 0.000157
| 14>   1     -2.846559 0.755269 -0.001001
| 15> *
| 16> 
| 17> 
| 18>                          ****END OF INPUT****
================================================================================

                       *****************************
                       * Geometry Optimization Run *
                       *****************************

Geometry optimization settings:
Update method            Update   .... BFGS
Choice of coordinates    CoordSys .... Redundant Internals
Initial Hessian          InHess   .... Almoef's Model

Convergence Tolerances:
Energy Change            TolE     ....  5.0000e-06 Eh
Max. Gradient            TolMAXG  ....  3.0000e-04 Eh/bohr
RMS Gradient             TolRMSG  ....  1.0000e-04 Eh/bohr
Max. Displacement        TolMAXD  ....  4.0000e-03 bohr
RMS Displacement         TolRMSD  ....  2.0000e-03 bohr

------------------------------------------------------------------------------
                        ORCA OPTIMIZATION COORDINATE SETUP
------------------------------------------------------------------------------

The optimization will be done in new redundant internal coordinates
Making redundant internal coordinates   ...  (new redundants) done
Evaluating the initial hessian          ...  (Almloef) done
Evaluating the coordinates              ...  done
Calculating the B-matrix                .... done
Calculating the G-matrix                .... done
Diagonalizing the G-matrix              .... done
The first mode is                       ....   12
The number of degrees of freedom        ....   24

    -----------------------------------------------------------------
                    Redundant Internal Coordinates


    -----------------------------------------------------------------
         Definition                    Initial Value    Approx d2E/dq
    -----------------------------------------------------------------
      1. B(C   1,C   0)                  1.5426         0.356630   
      2. B(O   2,C   1)                  1.4386         0.468106   
      3. B(H   3,C   0)                  1.0858         0.365755   
      4. B(H   4,C   0)                  1.0857         0.365875   
      5. B(H   5,C   0)                  1.0857         0.365877   
      6. B(H   6,C   1)                  1.0967         0.351395   
      7. B(H   7,C   1)                  1.0967         0.351399   
      8. B(H   8,O   2)                  1.0663         0.351864   
      9. B(H   9,H   8)                  1.1001         0.066425   
     10. A(C   1,C   0,H   5)          110.3372         0.322700   
     11. A(H   3,C   0,H   4)          108.7471         0.292283   
     12. A(H   3,C   0,H   5)          108.7475         0.292283   
     13. A(H   4,C   0,H   5)          108.5528         0.292299   
     14. A(C   1,C   0,H   3)          110.0726         0.322682   
     15. A(C   1,C   0,H   4)          110.3371         0.322699   
     16. A(H   6,C   1,H   7)          107.4475         0.288616   
     17. A(C   0,C   1,O   2)          107.9958         0.372354   
     18. A(O   2,C   1,H   7)          111.1865         0.333252   
     19. A(C   0,C   1,H   7)          109.5042         0.320574   
     20. A(O   2,C   1,H   6)          111.1886         0.333251   
     21. A(C   0,C   1,H   6)          109.5053         0.320573   
     22. A(C   1,O   2,H   8)          103.9988         0.330478   
     23. A(O   2,H   8,H   9)          174.9621         0.197234   
     24. D(O   2,C   1,C   0,H   5)     59.9952         0.010218   
     25. D(O   2,C   1,C   0,H   4)    -59.9565         0.010218   
     26. D(H   6,C   1,C   0,H   3)    -58.7666         0.010218   
     27. D(H   6,C   1,C   0,H   5)   -178.7910         0.010218   
     28. D(O   2,C   1,C   0,H   3)   -179.9804         0.010218   
     29. D(H   7,C   1,C   0,H   3)     58.8089         0.010218   
     30. D(H   7,C   1,C   0,H   4)    178.8328         0.010218   
     31. D(H   7,C   1,C   0,H   5)    -61.2155         0.010218   
     32. D(H   6,C   1,C   0,H   4)     61.2573         0.010218   
     33. D(H   8,O   2,C   1,H   7)    -59.7954         0.017270   
     34. D(H   8,O   2,C   1,H   6)     59.8833         0.017270   
     35. D(H   8,O   2,C   1,C   0)   -179.9548         0.017270   
     36. D(H   9,H   8,O   2,C   1)     -0.0958         0.113868   
    -----------------------------------------------------------------

Number of atoms                         .... 10
Number of degrees of freedom            .... 36

         *************************************************************
         *                GEOMETRY OPTIMIZATION CYCLE   1            *
         *************************************************************
---------------------------------
CARTESIAN COORDINATES (ANGSTROEM)
---------------------------------
  C      1.337186   -0.177551   -0.000200
  C     -0.028261    0.540278   -0.000516
  O     -1.058330   -0.463969    0.001294
  H      2.141571    0.551719   -0.001191
  H      1.434412   -0.803083    0.881806
  H      1.433872   -0.804892   -0.880978
  H     -0.102680    1.186015    0.882746
  H     -0.103506    1.183622   -0.885449
  H     -1.965270    0.096789    0.000157
  H     -2.846559    0.755269   -0.001001

----------------------------
CARTESIAN COORDINATES (A.U.)
----------------------------
  NO LB      ZA    FRAG     MASS         X           Y           Z
   0 C     6.0000    0    12.011    2.526915   -0.335523   -0.000378
   1 C     6.0000    0    12.011   -0.053406    1.020977   -0.000975
   2 O     8.0000    0    15.999   -1.999954   -0.876774    0.002445
   3 H     1.0000    0     1.008    4.046983    1.042598   -0.002251
   4 H     1.0000    0     1.008    2.710646   -1.517607    1.666372
   5 H     1.0000    0     1.008    2.709625   -1.521025   -1.664807
   6 H     1.0000    0     1.008   -0.194037    2.241244    1.668148
   7 H     1.0000    0     1.008   -0.195598    2.236721   -1.673256
   8 H     1.0000    0     1.008   -3.713822    0.182905    0.000297
   9 H     1.0000    0     1.008   -5.379217    1.427252   -0.001892

--------------------------------
INTERNAL COORDINATES (ANGSTROEM)
--------------------------------
 C      0   0   0     0.000000000000     0.00000000     0.00000000
 C      1   0   0     1.542635434218     0.00000000     0.00000000
 O      2   1   0     1.438595654752   107.99584859     0.00000000
 H      1   2   3     1.085758234234   110.07260917   180.01964255
 H      1   2   3     1.085669269223   110.33705193   300.04350262
 H      1   2   3     1.085667904177   110.33723083    59.99521131
 H      2   1   3     1.096661397777   109.50529969   121.21379180
 H      2   1   3     1.096658436730   109.50423506   238.78930539
 H      3   2   1     1.066297796553   103.99876503   180.04517936
 H      9   3   2     1.100121608226   174.96208043   359.90422632

---------------------------
INTERNAL COORDINATES (A.U.)
---------------------------
 C      0   0   0     0.000000000000     0.00000000     0.00000000
 C      1   0   0     2.915158495155     0.00000000     0.00000000
 O      2   1   0     2.718551804930   107.99584859     0.00000000
 H      1   2   3     2.051785710351   110.07260917   180.01964255
 H      1   2   3     2.051617590847   110.33705193   300.04350262
 H      1   2   3     2.051615011284   110.33723083    59.99521131
 H      2   1   3     2.072389703442   109.50529969   121.21379180
 H      2   1   3     2.072384107873   109.50423506   238.78930539
 H      3   2   1     2.015010812688   103.99876503   180.04517936
 H      9   3   2     2.078928553555   174.96208043   359.90422632

---------------------
BASIS SET INFORMATION
---------------------
There are 3 groups of distinct atoms

 Group   1 Type C   : 6s3p contracted to 2s1p pattern {33/3}
 Group   2 Type O   : 6s3p contracted to 2s1p pattern {33/3}
 Group   3 Type H   : 3s contracted to 1s pattern {3}

Atom   0C    basis set group =>   1
Atom   1C    basis set group =>   1
Atom   2O    basis set group =>   2
Atom   3H    basis set group =>   3
Atom   4H    basis set group =>   3
Atom   5H    basis set group =>   3
Atom   6H    basis set group =>   3
Atom   7H    basis set group =>   3
Atom   8H    basis set group =>   3
Atom   9H    basis set group =>   3
------------------------------------------------------------------------------
                           ORCA GTO INTEGRAL CALCULATION
------------------------------------------------------------------------------

                         BASIS SET STATISTICS AND STARTUP INFO

 # of primitive gaussian shells          ...   48
 # of primitive gaussian functions       ...   66
 # of contracted shells                  ...   16
 # of contracted basis functions         ...   22
 Highest angular momentum                ...    1
 Maximum contraction depth               ...    3
 Integral package used                   ... LIBINT
 Integral threshhold            Thresh   ...  2.500e-11
 Primitive cut-off              TCut     ...  2.500e-12


------------------------------ INTEGRAL EVALUATION ----------------------------


 * One electron integrals 
 Pre-screening matrix                    ... done
 Shell pair data                         ... done (   0.000 sec)

-------------------------------------------------------------------------------
                                 ORCA SCF
-------------------------------------------------------------------------------

------------
SCF SETTINGS
------------
Hamiltonian:
 Ab initio Hamiltonian  Method          .... Hartree-Fock(GTOs)


General Settings:
 Integral files         IntName         .... TSC_2
 Hartree-Fock type      HFTyp           .... UHF
 Total Charge           Charge          ....    0
 Multiplicity           Mult            ....    2
 Number of Electrons    NEL             ....   27
 Basis Dimension        Dim             ....   22
 Nuclear Repulsion      ENuc            ....     85.6640872695 Eh

Convergence Acceleration:
 DIIS                   CNVDIIS         .... on
   Start iteration      DIISMaxIt       ....    12
   Startup error        DIISStart       ....  0.200000
   # of expansion vecs  DIISMaxEq       ....     5
   Bias factor          DIISBfac        ....   1.050
   Max. coefficient     DIISMaxC        ....  10.000
 Newton-Raphson         CNVNR           .... off
 SOSCF                  CNVSOSCF        .... off
 Level Shifting         CNVShift        .... on
   Level shift para.    LevelShift      ....    0.2500
   Turn off err/grad.   ShiftErr        ....    0.0010
 Zerner damping         CNVZerner       .... off
 Static damping         CNVDamp         .... on
   Fraction old density DampFac         ....    0.7000
   Max. Damping (<1)    DampMax         ....    0.9800
   Min. Damping (>=0)   DampMin         ....    0.0000
   Turn off err/grad.   DampErr         ....    0.1000
 Fernandez-Rico         CNVRico         .... off

SCF Procedure:
 Maximum # iterations   MaxIter         ....   125
 SCF integral mode      SCFMode         .... Direct
   Integral package                     .... LIBINT
 Reset frequeny         DirectResetFreq ....    20
 Integral Threshold     Thresh          ....  2.500e-11 Eh
 Primitive CutOff       TCut            ....  2.500e-12 Eh

Convergence Tolerance:
 Convergence Check Mode ConvCheckMode   .... Total+1el-Energy
 Convergence forced     ConvForced      .... 0
 Energy Change          TolE            ....  1.000e-08 Eh
 1-El. energy change                    ....  1.000e-05 Eh
 DIIS Error             TolErr          ....  5.000e-07


Diagonalization of the overlap matrix:
Smallest eigenvalue                        ... 2.120e-01
Time for diagonalization                   ...    0.000 sec
Threshold for overlap eigenvalues          ... 1.000e-08
Number of eigenvalues below threshold      ... 0
Time for construction of square roots      ...    0.000 sec
Total time needed                          ...    0.000 sec

-------------------
DFT GRID GENERATION
-------------------

General Integration Accuracy     IntAcc      ...  4.340
Radial Grid Type                 RadialGrid  ... Gauss-Chebyshev
Angular Grid (max. acc.)         AngularGrid ... Lebedev-110
Angular grid pruning method      GridPruning ... 3 (G Style)
Weight generation scheme         WeightScheme... Becke
Basis function cutoff            BFCut       ...    1.0000e-11
Integration weight cutoff        WCut        ...    1.0000e-14
Grids for H and He will be reduced by one unit

# of grid points (after initial pruning)     ...  10586 (   0.0 sec)
# of grid points (after weights+screening)   ...  10080 (   0.0 sec)
nearest neighbour list constructed           ...    0.0 sec
Grid point re-assignment to atoms done       ...    0.0 sec
Grid point division into batches done        ...    0.0 sec
Reduced shell lists constructed in    0.1 sec

Total number of grid points                  ...    10080
Total number of batches                      ...      163
Average number of points per batch           ...       61
Average number of grid points per atom       ...     1008
Average number of shells per batch           ...    13.66 (85.40%)
Average number of basis functions per batch  ...    19.43 (88.33%)
Average number of large shells per batch     ...    12.46 (91.21%)
Average number of large basis fcns per batch ...    17.96 (92.44%)
Maximum spatial batch extension              ...  19.87, 18.87, 25.60 au
Average spatial batch extension              ...   4.18,  4.50,  4.37 au

Time for grid setup =    0.061 sec

------------------------------
INITIAL GUESS: MODEL POTENTIAL
------------------------------
Loading Hartree-Fock densities                     ... done
Calculating cut-offs                               ... done
Setting up the integral package                    ... done
Initializing the effective Hamiltonian             ... done
Starting the Coulomb interaction                   ... done (   0.0 sec)
Reading the grid                                   ... done
Mapping shells                                     ... done
Starting the XC term evaluation                    ... done (   0.1 sec)
Transforming the Hamiltonian                       ... done (   0.0 sec)
Diagonalizing the Hamiltonian                      ... done (   0.0 sec)
Back transforming the eigenvectors                 ... done (   0.0 sec)
Now organizing SCF variables                       ... done
                      ------------------
                      INITIAL GUESS DONE (   0.2 sec)
                      ------------------
--------------
SCF ITERATIONS
--------------
ITER       Energy         Delta-E        Max-DP      RMS-DP      [F,P]     Damp
               ***  Starting incremental Fock matrix formation  ***
  0   -152.4850930901   0.000000000000 0.03745247  0.00419450  0.1248081 0.7000
  1   -152.5140621396  -0.028969049509 0.03383608  0.00356851  0.0922761 0.7000
                               ***Turning on DIIS***
  2   -152.5345495902  -0.020487450595 0.08701848  0.00854892  0.0641130 0.0000
  3   -152.5199052382   0.014644352017 0.02131104  0.00179572  0.0086098 0.0000
  4   -152.5784617358  -0.058556497562 0.02029273  0.00114632  0.0034952 0.0000
  5   -152.5855749214  -0.007113185639 0.01328187  0.00070611  0.0012076 0.0000
  6   -152.5872249333  -0.001650011921 0.00676347  0.00037058  0.0009731 0.0000
  7   -152.5867102325   0.000514700772 0.00306561  0.00021749  0.0008904 0.0000
  8   -152.5874492183  -0.000738985774 0.00222835  0.00019200  0.0005151 0.0000
  9   -152.5862882199   0.001160998468 0.00086966  0.00006677  0.0002002 0.0000
 10   -152.5857491237   0.000539096102 0.00032865  0.00001999  0.0000656 0.0000
 11   -152.5856675460   0.000081577736 0.00017405  0.00001081  0.0000222 0.0000
 12   -152.5856106566   0.000056889412 0.00005952  0.00000446  0.0000061 0.0000
 13   -152.5855841517   0.000026504902 0.00002057  0.00000163  0.0000017 0.0000
                            ***DIIS convergence achieved***

               *****************************************************
               *                     SUCCESS                       *
               *           SCF CONVERGED AFTER  14 CYCLES          *
               *****************************************************


----------------
TOTAL SCF ENERGY
----------------

Total Energy       :         -152.58557449 Eh           -4152.06457 eV

Components:
Nuclear Repulsion  :           85.66408727 Eh            2331.03832 eV
Electronic Energy  :         -238.24966176 Eh           -6483.10289 eV
One Electron Energy:         -378.24060951 Eh          -10292.45024 eV
Two Electron Energy:          139.99094775 Eh            3809.34735 eV

Virial components:
Potential Energy   :         -304.16923694 Eh           -8276.86572 eV
Kinetic Energy     :          151.58366245 Eh            4124.80116 eV
Virial Ratio       :            2.00660963


---------------
SCF CONVERGENCE
---------------

  Last Energy change         ...    9.6576e-06  Tolerance :   1.0000e-08
  Last MAX-Density change    ...    5.5104e-06  Tolerance :   1.0000e-07
  Last RMS-Density change    ...    5.2498e-07  Tolerance :   5.0000e-09
  Last DIIS Error            ...    4.3813e-07  Tolerance :   5.0000e-07

             **** THE GBW FILE WAS UPDATED (TSC_2.gbw) ****
             **** DENSITY FILE WAS UPDATED (TSC_2.scfp.tmp) ****
             **** ENERGY FILE WAS UPDATED (TSC_2.en.tmp) ****
----------------------
UHF SPIN CONTAMINATION
----------------------

Expectation value of <S**2>     :     0.788169
Ideal value S*(S+1) for S=0.5   :     0.750000
Deviation                       :     0.038169

----------------
ORBITAL ENERGIES
----------------
                 SPIN UP ORBITALS
  NO   OCC          E(Eh)            E(eV) 
   0   1.0000     -20.267547      -551.5080 
   1   1.0000     -11.089934      -301.7725 
   2   1.0000     -11.043072      -300.4973 
   3   1.0000      -1.294557       -35.2267 
   4   1.0000      -0.967581       -26.3292 
   5   1.0000      -0.796937       -21.6857 
   6   1.0000      -0.667320       -18.1587 
   7   1.0000      -0.605300       -16.4710 
   8   1.0000      -0.535875       -14.5819 
   9   1.0000      -0.493537       -13.4298 
  10   1.0000      -0.490669       -13.3518 
  11   1.0000      -0.454184       -12.3590 
  12   1.0000      -0.382743       -10.4150 
  13   1.0000      -0.365961        -9.9583 
  14   0.0000       0.578183        15.7332 
  15   0.0000       0.643240        17.5035 
  16   0.0000       0.661556        18.0018 
  17   0.0000       0.699563        19.0361 
  18   0.0000       0.743277        20.2256 
  19   0.0000       0.762199        20.7405 
  20   0.0000       0.775469        21.1016 
  21   0.0000       0.777778        21.1644 

                 SPIN DOWN ORBITALS
  NO   OCC          E(Eh)            E(eV) 
   0   1.0000     -20.256071      -551.1957 
   1   1.0000     -11.091107      -301.8044 
   2   1.0000     -11.042512      -300.4820 
   3   1.0000      -1.241202       -33.7748 
   4   1.0000      -0.961561       -26.1654 
   5   1.0000      -0.794657       -21.6237 
   6   1.0000      -0.603845       -16.4315 
   7   1.0000      -0.598711       -16.2917 
   8   1.0000      -0.511708       -13.9243 
   9   1.0000      -0.488433       -13.2909 
  10   1.0000      -0.471882       -12.8406 
  11   1.0000      -0.391943       -10.6653 
  12   1.0000      -0.349857        -9.5201 
  13   0.0000       0.214373         5.8334 
  14   0.0000       0.596288        16.2258 
  15   0.0000       0.643091        17.4994 
  16   0.0000       0.663511        18.0550 
  17   0.0000       0.702945        19.1281 
  18   0.0000       0.754624        20.5344 
  19   0.0000       0.767130        20.8747 
  20   0.0000       0.775245        21.0955 
  21   0.0000       0.858627        23.3644 

                    ********************************
                    * MULLIKEN POPULATION ANALYSIS *
                    ********************************

--------------------------------------------
MULLIKEN ATOMIC CHARGES AND SPIN POPULATIONS
--------------------------------------------
   0 C :   -0.182209    0.016325
   1 C :    0.002122   -0.043023
   2 O :   -0.242134    0.441346
   3 H :    0.063655    0.000989
   4 H :    0.067701   -0.001348
   5 H :    0.067695   -0.001348
   6 H :    0.050539    0.003564
   7 H :    0.050543    0.003578
   8 H :    0.120647   -0.228656
   9 H :    0.001442    0.808574
Sum of atomic charges         :   -0.0000000
Sum of atomic spin populations:    1.0000000

-----------------------------------------------------
MULLIKEN REDUCED ORBITAL CHARGES AND SPIN POPULATIONS
-----------------------------------------------------
CHARGE
  0 C s       :     3.176784  s :     3.176784
      pz      :     1.029208  p :     3.005425
      px      :     0.966753
      py      :     1.009464
  1 C s       :     3.169544  s :     3.169544
      pz      :     1.015297  p :     2.828334
      px      :     0.898039
      py      :     0.914997
  2 O s       :     3.860200  s :     3.860200
      pz      :     1.974470  p :     4.381934
      px      :     1.057663
      py      :     1.349801
  3 H s       :     0.936345  s :     0.936345
  4 H s       :     0.932299  s :     0.932299
  5 H s       :     0.932305  s :     0.932305
  6 H s       :     0.949461  s :     0.949461
  7 H s       :     0.949457  s :     0.949457
  8 H s       :     0.879353  s :     0.879353
  9 H s       :     0.998558  s :     0.998558

SPIN
  0 C s       :     0.003745  s :     0.003745
      pz      :     0.001336  p :     0.012580
      px      :     0.008831
      py      :     0.002413
  1 C s       :    -0.008783  s :    -0.008783
      pz      :    -0.002764  p :    -0.034240
      px      :    -0.016691
      py      :    -0.014784
  2 O s       :     0.004244  s :     0.004244
      pz      :     0.000776  p :     0.437102
      px      :     0.243831
      py      :     0.192495
  3 H s       :     0.000989  s :     0.000989
  4 H s       :    -0.001348  s :    -0.001348
  5 H s       :    -0.001348  s :    -0.001348
  6 H s       :     0.003564  s :     0.003564
  7 H s       :     0.003578  s :     0.003578
  8 H s       :    -0.228656  s :    -0.228656
  9 H s       :     0.808574  s :     0.808574


                     *******************************
                     * LOEWDIN POPULATION ANALYSIS *
                     *******************************

-------------------------------------------
LOEWDIN ATOMIC CHARGES AND SPIN POPULATIONS
-------------------------------------------
   0 C :   -0.091626    0.014152
   1 C :    0.048392   -0.035011
   2 O :   -0.182452    0.417445
   3 H :    0.033029    0.000807
   4 H :    0.035459   -0.001024
   5 H :    0.035454   -0.001024
   6 H :    0.015940    0.002741
   7 H :    0.015945    0.002753
   8 H :    0.094460   -0.168538
   9 H :   -0.004602    0.767699

----------------------------------------------------
LOEWDIN REDUCED ORBITAL CHARGES AND SPIN POPULATIONS
----------------------------------------------------
CHARGE
  0 C s       :     2.999967  s :     2.999967
      pz      :     1.051979  p :     3.091659
      px      :     1.003285
      py      :     1.036396
  1 C s       :     3.029179  s :     3.029179
      pz      :     1.037104  p :     2.922429
      px      :     0.937155
      py      :     0.948169
  2 O s       :     3.757397  s :     3.757397
      pz      :     1.975061  p :     4.425054
      px      :     1.083569
      py      :     1.366424
  3 H s       :     0.966971  s :     0.966971
  4 H s       :     0.964541  s :     0.964541
  5 H s       :     0.964546  s :     0.964546
  6 H s       :     0.984060  s :     0.984060
  7 H s       :     0.984055  s :     0.984055
  8 H s       :     0.905540  s :     0.905540
  9 H s       :     1.004602  s :     1.004602

SPIN
  0 C s       :     0.002867  s :     0.002867
      pz      :     0.001067  p :     0.011285
      px      :     0.008137
      py      :     0.002081
  1 C s       :    -0.006055  s :    -0.006055
      pz      :    -0.002180  p :    -0.028955
      px      :    -0.014133
      py      :    -0.012643
  2 O s       :    -0.004963  s :    -0.004963
      pz      :     0.000697  p :     0.422408
      px      :     0.235094
      py      :     0.186617
  3 H s       :     0.000807  s :     0.000807
  4 H s       :    -0.001024  s :    -0.001024
  5 H s       :    -0.001024  s :    -0.001024
  6 H s       :     0.002741  s :     0.002741
  7 H s       :     0.002753  s :     0.002753
  8 H s       :    -0.168538  s :    -0.168538
  9 H s       :     0.767699  s :     0.767699


                      *****************************
                      * MAYER POPULATION ANALYSIS *
                      *****************************

  NA   - Mulliken gross atomic population
  ZA   - Total nuclear charge
  QA   - Mulliken gross atomic charge
  VA   - Mayer's total valence
  BVA  - Mayer's bonded valence
  FA   - Mayer's free valence

  ATOM       NA         ZA         QA         VA         BVA        FA
  0 C      6.1822     6.0000    -0.1822     3.9643     3.9641     0.0002
  1 C      5.9979     6.0000     0.0021     3.9336     3.9328     0.0009
  2 O      8.2421     8.0000    -0.2421     2.0380     1.8620     0.1759
  3 H      0.9363     1.0000     0.0637     0.9959     0.9959     0.0000
  4 H      0.9323     1.0000     0.0677     0.9954     0.9954     0.0000
  5 H      0.9323     1.0000     0.0677     0.9954     0.9954     0.0000
  6 H      0.9495     1.0000     0.0505     0.9974     0.9974     0.0000
  7 H      0.9495     1.0000     0.0505     0.9974     0.9974     0.0000
  8 H      0.8794     1.0000     0.1206     0.9854     0.9332     0.0523
  9 H      0.9986     1.0000     0.0014     1.0000     0.3462     0.6538

  Mayer bond orders larger than 0.1
B(  0-C ,  1-C ) :   0.9950 B(  0-C ,  3-H ) :   0.9823 B(  0-C ,  4-H ) :   0.9826 
B(  0-C ,  5-H ) :   0.9826 B(  1-C ,  2-O ) :   0.9923 B(  1-C ,  6-H ) :   0.9655 
B(  1-C ,  7-H ) :   0.9656 B(  2-O ,  8-H ) :   0.6984 B(  2-O ,  9-H ) :   0.1194 
B(  8-H ,  9-H ) :   0.2206 

-------
TIMINGS
-------

Total SCF time: 0 days 0 hours 0 min 1 sec 

Total time                  ....       1.702 sec
Sum of individual times     ....       1.699 sec  ( 99.8%)

Fock matrix formation       ....       1.502 sec  ( 88.3%)
Diagonalization             ....       0.003 sec  (  0.2%)
Density matrix formation    ....       0.000 sec  (  0.0%)
Population analysis         ....       0.001 sec  (  0.0%)
Initial guess               ....       0.132 sec  (  7.8%)
Orbital Transformation      ....       0.000 sec  (  0.0%)
Orbital Orthonormalization  ....       0.000 sec  (  0.0%)
DIIS solution               ....       0.001 sec  (  0.1%)

-------------------------   --------------------
FINAL SINGLE POINT ENERGY      -152.585574494063
-------------------------   --------------------

------------------------------------------------------------------------------
                         ORCA SCF GRADIENT CALCULATION
------------------------------------------------------------------------------

Gradient of the Hartree-Fock SCF energy:
Hartree-Fock type                ... UHF
Number of operators              ...    2
Number of atoms                  ...   10
Basis set dimensions             ...   22
Integral neglect threshold       ... 2.5e-11
Integral primitive cutoff        ... 2.5e-12

Nuclear repulsion gradient       ... done
One Electron Gradient            ... done
Pre-screening matrix             ... done
Starting the two electron gradient:
Two electron gradient done

------------------
CARTESIAN GRADIENT
------------------

   1   C   :   -0.000009739    0.000025912   -0.000002499
   2   C   :   -0.000027685   -0.000073640    0.000007546
   3   O   :    0.000067230    0.000006347    0.000004572
   4   H   :   -0.000000151    0.000000885    0.000001115
   5   H   :   -0.000003380   -0.000006453   -0.000004083
   6   H   :   -0.000003582   -0.000004464    0.000003112
   7   H   :    0.000009361    0.000014170   -0.000014033
   8   H   :    0.000003570    0.000011474    0.000011230
   9   H   :   -0.000041598    0.000041556   -0.000008302
  10   H   :    0.000005975   -0.000015788    0.000001342

Difference to translation invariance:
           :   -0.0000000000    0.0000000000   -0.0000000000

Norm of the cartesian gradient     ...    0.0001276040
RMS gradient                       ...    0.0000232972
MAX gradient                       ...    0.0000736397

-------
TIMINGS
-------

Total SCF gradient time            ...        0.128 sec

One electron gradient       ....       0.004 sec  (  3.4%)
Prescreening matrices       ....       0.002 sec  (  1.6%)
Two electron gradient       ....       0.062 sec  ( 48.0%)
------------------------------------------------------------------------------
                         ORCA GEOMETRY RELAXATION STEP
------------------------------------------------------------------------------

Reading the OPT-File                    .... done
Getting information on internals        .... done
Copying old internal coords+grads       .... done
Making the new internal coordinates     .... (new redundants).... done
Validating the new internal coordinates .... (new redundants).... done
Calculating the B-matrix                .... done
Calculating the G,G- and P matrices     .... done
Transforming gradient to internals      .... done
Projecting the internal gradient        .... done
Number of atoms                         ....  10
Number of internal coordinates          ....  36
Current Energy                          ....  -152.585574494 Eh
Current gradient norm                   ....     0.000127604 Eh/bohr
Maximum allowed component of the step   ....  0.300
Current trust radius                    ....  0.300
Evaluating the initial hessian          ....  (Almloef) done
Projecting the Hessian                  .... done
Forming the augmented Hessian           .... done
Diagonalizing the augmented Hessian     .... done
Last element of RFO vector              ....  0.999999850
Lowest eigenvalues of augmented Hessian:
 -0.000000025  0.010217622  0.017270102  0.066424527  0.107481058
Length of the computed step             ....  0.000547155
The final length of the internal step   ....  0.000547155
Converting the step to cartesian space:
 Initial RMS(Int)=    0.0000911925
Transforming coordinates:
 Iter   0:  RMS(Cart)=    0.0001254840 RMS(Int)=    0.0000911956
 Iter   1:  RMS(Cart)=    0.0000000161 RMS(Int)=    0.0000000658
done
Storing new coordinates                 .... done

                                .--------------------.
          ----------------------|Geometry convergence|-------------------------
          Item                value                   Tolerance       Converged
          ---------------------------------------------------------------------
          RMS gradient        0.0000127907            0.0001000000      YES
          MAX gradient        0.0000450490            0.0003000000      YES
          RMS step            0.0000911925            0.0020000000      YES
          MAX step            0.0002283976            0.0040000000      YES
          ........................................................
          Max(Bonds)      0.0001      Max(Angles)    0.01
          Max(Dihed)        0.01      Max(Improp)    0.00
          ---------------------------------------------------------------------

                    ***********************HURRAY********************
                    ***        THE OPTIMIZATION HAS CONVERGED     ***
                    *************************************************


    ---------------------------------------------------------------------------
                         Redundant Internal Coordinates

                          --- Optimized Parameters ---  
                            (Angstroem and degrees)

        Definition                    OldVal   dE/dq     Step     FinalVal
    ----------------------------------------------------------------------------
     1. B(C   1,C   0)                1.5426 -0.000022  0.0000    1.5427   
     2. B(O   2,C   1)                1.4386 -0.000045  0.0001    1.4386   
     3. B(H   3,C   0)                1.0858  0.000000 -0.0000    1.0858   
     4. B(H   4,C   0)                1.0857  0.000000 -0.0000    1.0857   
     5. B(H   5,C   0)                1.0857 -0.000000  0.0000    1.0857   
     6. B(H   6,C   1)                1.0967 -0.000004  0.0000    1.0967   
     7. B(H   7,C   1)                1.0967 -0.000003  0.0000    1.0967   
     8. B(H   8,O   2)                1.0663  0.000044 -0.0001    1.0662   
     9. B(H   9,H   8)                1.1001 -0.000014  0.0001    1.1002   
    10. A(C   1,C   0,H   5)          110.34 -0.000002    0.00    110.34   
    11. A(H   3,C   0,H   4)          108.75  0.000002   -0.00    108.75   
    12. A(H   3,C   0,H   5)          108.75  0.000003   -0.00    108.75   
    13. A(H   4,C   0,H   5)          108.55 -0.000003    0.00    108.55   
    14. A(C   1,C   0,H   3)          110.07  0.000001   -0.00    110.07   
    15. A(C   1,C   0,H   4)          110.34 -0.000001    0.00    110.34   
    16. A(H   6,C   1,H   7)          107.45 -0.000011    0.01    107.45   
    17. A(C   0,C   1,O   2)          108.00 -0.000003   -0.00    108.00   
    18. A(O   2,C   1,H   7)          111.19  0.000005   -0.00    111.18   
    19. A(C   0,C   1,H   7)          109.50 -0.000001    0.00    109.51   
    20. A(O   2,C   1,H   6)          111.19  0.000010   -0.00    111.18   
    21. A(C   0,C   1,H   6)          109.51 -0.000000    0.00    109.51   
    22. A(C   1,O   2,H   8)          104.00  0.000012   -0.00    104.00   
    23. A(O   2,H   8,H   9)          174.96  0.000019   -0.01    174.96   
    24. D(O   2,C   1,C   0,H   5)     60.00 -0.000004   -0.00     59.99   
    25. D(O   2,C   1,C   0,H   4)    -59.96  0.000002   -0.00    -59.96   
    26. D(H   6,C   1,C   0,H   3)    -58.77  0.000008   -0.01    -58.77   
    27. D(H   6,C   1,C   0,H   5)   -178.79  0.000006   -0.01   -178.80   
    28. D(O   2,C   1,C   0,H   3)   -179.98 -0.000002   -0.00   -179.98   
    29. D(H   7,C   1,C   0,H   3)     58.81 -0.000005   -0.00     58.81   
    30. D(H   7,C   1,C   0,H   4)    178.83 -0.000002   -0.00    178.83   
    31. D(H   7,C   1,C   0,H   5)    -61.22 -0.000008    0.00    -61.21   
    32. D(H   6,C   1,C   0,H   4)     61.26  0.000012   -0.01     61.25   
    33. D(H   8,O   2,C   1,H   7)    -59.80  0.000005   -0.01    -59.81   
    34. D(H   8,O   2,C   1,H   6)     59.88  0.000001   -0.01     59.87   
    35. D(H   8,O   2,C   1,C   0)   -179.95  0.000005   -0.01   -179.97   
    36. D(H   9,H   8,O   2,C   1)     -0.10 -0.000000    0.00     -0.10   
    ----------------------------------------------------------------------------
                 *******************************************************
                 *** FINAL ENERGY EVALUATION AT THE STATIONARY POINT ***
                 ***               (AFTER    1 CYCLES)               ***
                 *******************************************************
---------------------------------
CARTESIAN COORDINATES (ANGSTROEM)
---------------------------------
  C      1.337201   -0.177557   -0.000184
  C     -0.028275    0.540288   -0.000591
  O     -1.058366   -0.464009    0.001138
  H      2.141575    0.551724   -0.001157
  H      1.434402   -0.803040    0.881859
  H      1.433956   -0.804908   -0.880948
  H     -0.102794    1.185952    0.882723
  H     -0.103487    1.183621   -0.885540
  H     -1.965237    0.096736    0.000171
  H     -2.846538    0.755389   -0.000803

----------------------------
CARTESIAN COORDINATES (A.U.)
----------------------------
  NO LB      ZA    FRAG     MASS         X           Y           Z
   0 C     6.0000    0    12.011    2.526944   -0.335534   -0.000348
   1 C     6.0000    0    12.011   -0.053432    1.020997   -0.001117
   2 O     8.0000    0    15.999   -2.000023   -0.876850    0.002150
   3 H     1.0000    0     1.008    4.046990    1.042608   -0.002187
   4 H     1.0000    0     1.008    2.710627   -1.517526    1.666472
   5 H     1.0000    0     1.008    2.709783   -1.521056   -1.664750
   6 H     1.0000    0     1.008   -0.194253    2.241125    1.668104
   7 H     1.0000    0     1.008   -0.195563    2.236720   -1.673427
   8 H     1.0000    0     1.008   -3.713760    0.182804    0.000323
   9 H     1.0000    0     1.008   -5.379178    1.427478   -0.001517

--------------------------------
INTERNAL COORDINATES (ANGSTROEM)
--------------------------------
 C      0   0   0     0.000000000000     0.00000000     0.00000000
 C      1   0   0     1.542668535207     0.00000000     0.00000000
 O      2   1   0     1.438646581010   107.99501087     0.00000000
 H      1   2   3     1.085757536045   110.07176436   180.01708873
 H      1   2   3     1.085669128160   110.33747014   300.03921561
 H      1   2   3     1.085668286632   110.33800362    59.99423264
 H      2   1   3     1.096666810156   109.50536081   121.20874502
 H      2   1   3     1.096662315572   109.50517091   238.79120987
 H      3   2   1     1.066231840028   103.99660844   180.03243937
 H      9   3   2     1.100235041724   174.95660099   359.90434846

---------------------------
INTERNAL COORDINATES (A.U.)
---------------------------
 C      0   0   0     0.000000000000     0.00000000     0.00000000
 C      1   0   0     2.915221046959     0.00000000     0.00000000
 O      2   1   0     2.718648041611   107.99501087     0.00000000
 H      1   2   3     2.051784390967   110.07176436   180.01708873
 H      1   2   3     2.051617324276   110.33747014   300.03921561
 H      1   2   3     2.051615734019   110.33800362    59.99423264
 H      2   1   3     2.072399931356   109.50536081   121.20874502
 H      2   1   3     2.072391437822   109.50517091   238.79120987
 H      3   2   1     2.014886172920   103.99660844   180.03243937
 H      9   3   2     2.079142911803   174.95660099   359.90434846

---------------------
BASIS SET INFORMATION
---------------------
There are 3 groups of distinct atoms

 Group   1 Type C   : 6s3p contracted to 2s1p pattern {33/3}
 Group   2 Type O   : 6s3p contracted to 2s1p pattern {33/3}
 Group   3 Type H   : 3s contracted to 1s pattern {3}

Atom   0C    basis set group =>   1
Atom   1C    basis set group =>   1
Atom   2O    basis set group =>   2
Atom   3H    basis set group =>   3
Atom   4H    basis set group =>   3
Atom   5H    basis set group =>   3
Atom   6H    basis set group =>   3
Atom   7H    basis set group =>   3
Atom   8H    basis set group =>   3
Atom   9H    basis set group =>   3
------------------------------------------------------------------------------
                           ORCA GTO INTEGRAL CALCULATION
------------------------------------------------------------------------------

                         BASIS SET STATISTICS AND STARTUP INFO

 # of primitive gaussian shells          ...   48
 # of primitive gaussian functions       ...   66
 # of contracted shells                  ...   16
 # of contracted basis functions         ...   22
 Highest angular momentum                ...    1
 Maximum contraction depth               ...    3
 Integral package used                   ... LIBINT
 Integral threshhold            Thresh   ...  2.500e-11
 Primitive cut-off              TCut     ...  2.500e-12


------------------------------ INTEGRAL EVALUATION ----------------------------


 * One electron integrals 
 Pre-screening matrix                    ... done
 Shell pair data                         ... done (   0.000 sec)

-------------------------------------------------------------------------------
                                 ORCA SCF
-------------------------------------------------------------------------------

------------
SCF SETTINGS
------------
Hamiltonian:
 Ab initio Hamiltonian  Method          .... Hartree-Fock(GTOs)


General Settings:
 Integral files         IntName         .... TSC_2
 Hartree-Fock type      HFTyp           .... UHF
 Total Charge           Charge          ....    0
 Multiplicity           Mult            ....    2
 Number of Electrons    NEL             ....   27
 Basis Dimension        Dim             ....   22
 Nuclear Repulsion      ENuc            ....     85.6628800589 Eh

Convergence Acceleration:
 DIIS                   CNVDIIS         .... on
   Start iteration      DIISMaxIt       ....    12
   Startup error        DIISStart       ....  0.200000
   # of expansion vecs  DIISMaxEq       ....     5
   Bias factor          DIISBfac        ....   1.050
   Max. coefficient     DIISMaxC        ....  10.000
 Newton-Raphson         CNVNR           .... off
 SOSCF                  CNVSOSCF        .... off
 Level Shifting         CNVShift        .... on
   Level shift para.    LevelShift      ....    0.2500
   Turn off err/grad.   ShiftErr        ....    0.0010
 Zerner damping         CNVZerner       .... off
 Static damping         CNVDamp         .... on
   Fraction old density DampFac         ....    0.7000
   Max. Damping (<1)    DampMax         ....    0.9800
   Min. Damping (>=0)   DampMin         ....    0.0000
   Turn off err/grad.   DampErr         ....    0.1000
 Fernandez-Rico         CNVRico         .... off

SCF Procedure:
 Maximum # iterations   MaxIter         ....   125
 SCF integral mode      SCFMode         .... Direct
   Integral package                     .... LIBINT
 Reset frequeny         DirectResetFreq ....    20
 Integral Threshold     Thresh          ....  2.500e-11 Eh
 Primitive CutOff       TCut            ....  2.500e-12 Eh

Convergence Tolerance:
 Convergence Check Mode ConvCheckMode   .... Total+1el-Energy
 Convergence forced     ConvForced      .... 0
 Energy Change          TolE            ....  1.000e-08 Eh
 1-El. energy change                    ....  1.000e-05 Eh
 DIIS Error             TolErr          ....  5.000e-07


Diagonalization of the overlap matrix:
Smallest eigenvalue                        ... 2.120e-01
Time for diagonalization                   ...    0.000 sec
Threshold for overlap eigenvalues          ... 1.000e-08
Number of eigenvalues below threshold      ... 0
Time for construction of square roots      ...    0.000 sec
Total time needed                          ...    0.000 sec

---------------------
INITIAL GUESS: MOREAD
---------------------
Guess MOs are being read from file: TSC_2.gbw
Input Geometry matches current geometry (good)
Input basis set matches current basis set (good)
MOs were renormalized
MOs were reorthogonalized (Cholesky)
                      ------------------
                      INITIAL GUESS DONE (   0.0 sec)
                      ------------------
--------------
SCF ITERATIONS
--------------
ITER       Energy         Delta-E        Max-DP      RMS-DP      [F,P]     Damp
               ***  Starting incremental Fock matrix formation  ***
  0   -152.5855706420   0.000000000000 0.00000915  0.00000090  0.0000314 0.7000
  1   -152.5855706441  -0.000000002067 0.00000894  0.00000089  0.0000262 0.7000
                               ***Turning on DIIS***
  2   -152.5855706460  -0.000000001950 0.00002619  0.00000273  0.0000220 0.0000
  3   -152.5855513804   0.000019265649 0.00002121  0.00000218  0.0000132 0.0000
  4   -152.5855652122  -0.000013831822 0.00001061  0.00000127  0.0000069 0.0000
  5   -152.5855569522   0.000008260002 0.00001105  0.00000128  0.0000036 0.0000
  6   -152.5855649476  -0.000007995364 0.00000521  0.00000051  0.0000011 0.0000
                            ***DIIS convergence achieved***

               *****************************************************
               *                     SUCCESS                       *
               *           SCF CONVERGED AFTER   7 CYCLES          *
               *****************************************************


----------------
TOTAL SCF ENERGY
----------------

Total Energy       :         -152.58556938 Eh           -4152.06443 eV

Components:
Nuclear Repulsion  :           85.66288006 Eh            2331.00547 eV
Electronic Energy  :         -238.24844944 Eh           -6483.06990 eV
One Electron Energy:         -378.23846770 Eh          -10292.39196 eV
Two Electron Energy:          139.99001826 Eh            3809.32206 eV

Virial components:
Potential Energy   :         -304.16920037 Eh           -8276.86473 eV
Kinetic Energy     :          151.58363099 Eh            4124.80030 eV
Virial Ratio       :            2.00660981


---------------
SCF CONVERGENCE
---------------

  Last Energy change         ...   -4.4289e-06  Tolerance :   1.0000e-08
  Last MAX-Density change    ...    2.3310e-06  Tolerance :   1.0000e-07
  Last RMS-Density change    ...    1.7428e-07  Tolerance :   5.0000e-09
  Last DIIS Error            ...    5.7692e-07  Tolerance :   5.0000e-07

             **** THE GBW FILE WAS UPDATED (TSC_2.gbw) ****
             **** DENSITY FILE WAS UPDATED (TSC_2.scfp.tmp) ****
             **** ENERGY FILE WAS UPDATED (TSC_2.en.tmp) ****
----------------------
UHF SPIN CONTAMINATION
----------------------

Expectation value of <S**2>     :     0.788145
Ideal value S*(S+1) for S=0.5   :     0.750000
Deviation                       :     0.038145

----------------
ORBITAL ENERGIES
----------------
                 SPIN UP ORBITALS
  NO   OCC          E(Eh)            E(eV) 
   0   1.0000     -20.267521      -551.5073 
   1   1.0000     -11.089926      -301.7722 
   2   1.0000     -11.043067      -300.4971 
   3   1.0000      -1.294527       -35.2259 
   4   1.0000      -0.967568       -26.3289 
   5   1.0000      -0.796932       -21.6856 
   6   1.0000      -0.667298       -18.1581 
   7   1.0000      -0.605291       -16.4708 
   8   1.0000      -0.535865       -14.5816 
   9   1.0000      -0.493519       -13.4293 
  10   1.0000      -0.490668       -13.3517 
  11   1.0000      -0.454168       -12.3585 
  12   1.0000      -0.382747       -10.4151 
  13   1.0000      -0.365952        -9.9581 
  14   0.0000       0.578157        15.7325 
  15   0.0000       0.643255        17.5039 
  16   0.0000       0.661538        18.0014 
  17   0.0000       0.699548        19.0357 
  18   0.0000       0.743276        20.2256 
  19   0.0000       0.762197        20.7404 
  20   0.0000       0.775482        21.1020 
  21   0.0000       0.777762        21.1640 

                 SPIN DOWN ORBITALS
  NO   OCC          E(Eh)            E(eV) 
   0   1.0000     -20.256050      -551.1951 
   1   1.0000     -11.091099      -301.8042 
   2   1.0000     -11.042507      -300.4819 
   3   1.0000      -1.241196       -33.7747 
   4   1.0000      -0.961552       -26.1652 
   5   1.0000      -0.794654       -21.6236 
   6   1.0000      -0.603837       -16.4313 
   7   1.0000      -0.598697       -16.2914 
   8   1.0000      -0.511701       -13.9241 
   9   1.0000      -0.488434       -13.2910 
  10   1.0000      -0.471862       -12.8400 
  11   1.0000      -0.391942       -10.6653 
  12   1.0000      -0.349854        -9.5200 
  13   0.0000       0.214381         5.8336 
  14   0.0000       0.596257        16.2250 
  15   0.0000       0.643105        17.4998 
  16   0.0000       0.663492        18.0545 
  17   0.0000       0.702928        19.1276 
  18   0.0000       0.754611        20.5340 
  19   0.0000       0.767117        20.8743 
  20   0.0000       0.775257        21.0958 
  21   0.0000       0.858620        23.3642 

                    ********************************
                    * MULLIKEN POPULATION ANALYSIS *
                    ********************************

--------------------------------------------
MULLIKEN ATOMIC CHARGES AND SPIN POPULATIONS
--------------------------------------------
   0 C :   -0.182208    0.016325
   1 C :    0.002120   -0.043023
   2 O :   -0.242175    0.441150
   3 H :    0.063649    0.000985
   4 H :    0.067700   -0.001350
   5 H :    0.067694   -0.001350
   6 H :    0.050537    0.003568
   7 H :    0.050541    0.003578
   8 H :    0.120678   -0.228579
   9 H :    0.001464    0.808696
Sum of atomic charges         :    0.0000000
Sum of atomic spin populations:    1.0000000

-----------------------------------------------------
MULLIKEN REDUCED ORBITAL CHARGES AND SPIN POPULATIONS
-----------------------------------------------------
CHARGE
  0 C s       :     3.176789  s :     3.176789
      pz      :     1.029203  p :     3.005419
      px      :     0.966753
      py      :     1.009463
  1 C s       :     3.169564  s :     3.169564
      pz      :     1.015282  p :     2.828316
      px      :     0.898044
      py      :     0.914990
  2 O s       :     3.860192  s :     3.860192
      pz      :     1.974478  p :     4.381983
      px      :     1.057671
      py      :     1.349834
  3 H s       :     0.936351  s :     0.936351
  4 H s       :     0.932300  s :     0.932300
  5 H s       :     0.932306  s :     0.932306
  6 H s       :     0.949463  s :     0.949463
  7 H s       :     0.949459  s :     0.949459
  8 H s       :     0.879322  s :     0.879322
  9 H s       :     0.998536  s :     0.998536

SPIN
  0 C s       :     0.003745  s :     0.003745
      pz      :     0.001338  p :     0.012579
      px      :     0.008828
      py      :     0.002414
  1 C s       :    -0.008784  s :    -0.008784
      pz      :    -0.002767  p :    -0.034239
      px      :    -0.016690
      py      :    -0.014783
  2 O s       :     0.004240  s :     0.004240
      pz      :     0.000775  p :     0.436910
      px      :     0.243727
      py      :     0.192408
  3 H s       :     0.000985  s :     0.000985
  4 H s       :    -0.001350  s :    -0.001350
  5 H s       :    -0.001350  s :    -0.001350
  6 H s       :     0.003568  s :     0.003568
  7 H s       :     0.003578  s :     0.003578
  8 H s       :    -0.228579  s :    -0.228579
  9 H s       :     0.808696  s :     0.808696


                     *******************************
                     * LOEWDIN POPULATION ANALYSIS *
                     *******************************

-------------------------------------------
LOEWDIN ATOMIC CHARGES AND SPIN POPULATIONS
-------------------------------------------
   0 C :   -0.091625    0.014151
   1 C :    0.048393   -0.035012
   2 O :   -0.182491    0.417255
   3 H :    0.033024    0.000804
   4 H :    0.035458   -0.001025
   5 H :    0.035453   -0.001025
   6 H :    0.015940    0.002744
   7 H :    0.015945    0.002753
   8 H :    0.094479   -0.168478
   9 H :   -0.004576    0.767833

----------------------------------------------------
LOEWDIN REDUCED ORBITAL CHARGES AND SPIN POPULATIONS
----------------------------------------------------
CHARGE
  0 C s       :     2.999973  s :     2.999973
      pz      :     1.051975  p :     3.091652
      px      :     1.003283
      py      :     1.036395
  1 C s       :     3.029200  s :     3.029200
      pz      :     1.037090  p :     2.922406
      px      :     0.937156
      py      :     0.948161
  2 O s       :     3.757385  s :     3.757385
      pz      :     1.975069  p :     4.425106
      px      :     1.083579
      py      :     1.366458
  3 H s       :     0.966976  s :     0.966976
  4 H s       :     0.964542  s :     0.964542
  5 H s       :     0.964547  s :     0.964547
  6 H s       :     0.984060  s :     0.984060
  7 H s       :     0.984055  s :     0.984055
  8 H s       :     0.905521  s :     0.905521
  9 H s       :     1.004576  s :     1.004576

SPIN
  0 C s       :     0.002867  s :     0.002867
      pz      :     0.001068  p :     0.011284
      px      :     0.008134
      py      :     0.002082
  1 C s       :    -0.006056  s :    -0.006056
      pz      :    -0.002182  p :    -0.028956
      px      :    -0.014132
      py      :    -0.012642
  2 O s       :    -0.004964  s :    -0.004964
      pz      :     0.000696  p :     0.422219
      px      :     0.234992
      py      :     0.186530
  3 H s       :     0.000804  s :     0.000804
  4 H s       :    -0.001025  s :    -0.001025
  5 H s       :    -0.001025  s :    -0.001025
  6 H s       :     0.002744  s :     0.002744
  7 H s       :     0.002753  s :     0.002753
  8 H s       :    -0.168478  s :    -0.168478
  9 H s       :     0.767833  s :     0.767833


                      *****************************
                      * MAYER POPULATION ANALYSIS *
                      *****************************

  NA   - Mulliken gross atomic population
  ZA   - Total nuclear charge
  QA   - Mulliken gross atomic charge
  VA   - Mayer's total valence
  BVA  - Mayer's bonded valence
  FA   - Mayer's free valence

  ATOM       NA         ZA         QA         VA         BVA        FA
  0 C      6.1822     6.0000    -0.1822     3.9643     3.9641     0.0002
  1 C      5.9979     6.0000     0.0021     3.9336     3.9328     0.0009
  2 O      8.2422     8.0000    -0.2422     2.0379     1.8622     0.1758
  3 H      0.9364     1.0000     0.0636     0.9959     0.9959     0.0000
  4 H      0.9323     1.0000     0.0677     0.9954     0.9954     0.0000
  5 H      0.9323     1.0000     0.0677     0.9954     0.9954     0.0000
  6 H      0.9495     1.0000     0.0505     0.9974     0.9974     0.0000
  7 H      0.9495     1.0000     0.0505     0.9974     0.9974     0.0000
  8 H      0.8793     1.0000     0.1207     0.9854     0.9332     0.0522
  9 H      0.9985     1.0000     0.0015     1.0000     0.3460     0.6540

  Mayer bond orders larger than 0.1
B(  0-C ,  1-C ) :   0.9950 B(  0-C ,  3-H ) :   0.9823 B(  0-C ,  4-H ) :   0.9826 
B(  0-C ,  5-H ) :   0.9826 B(  1-C ,  2-O ) :   0.9923 B(  1-C ,  6-H ) :   0.9656 
B(  1-C ,  7-H ) :   0.9656 B(  2-O ,  8-H ) :   0.6986 B(  2-O ,  9-H ) :   0.1194 
B(  8-H ,  9-H ) :   0.2205 

-------
TIMINGS
-------

Total SCF time: 0 days 0 hours 0 min 0 sec 

Total time                  ....       0.719 sec
Sum of individual times     ....       0.717 sec  ( 99.7%)

Fock matrix formation       ....       0.714 sec  ( 99.3%)
Diagonalization             ....       0.002 sec  (  0.2%)
Density matrix formation    ....       0.000 sec  (  0.0%)
Population analysis         ....       0.001 sec  (  0.1%)
Initial guess               ....       0.000 sec  (  0.0%)
Orbital Transformation      ....       0.000 sec  (  0.0%)
Orbital Orthonormalization  ....       0.000 sec  (  0.0%)
DIIS solution               ....       0.001 sec  (  0.1%)

-------------------------   --------------------
FINAL SINGLE POINT ENERGY      -152.585569376504
-------------------------   --------------------

                                *** OPTIMIZATION RUN DONE ***

                            ***************************************
                            *     ORCA property calculations      *
                            ***************************************

                                    ---------------------
                                    Active property flags
                                    ---------------------
   (+) Dipole Moment


------------------------------------------------------------------------------
                       ORCA ELECTRIC PROPERTIES CALCULATION
------------------------------------------------------------------------------

Dipole Moment Calculation                       ... on
Quadrupole Moment Calculation                   ... off
Polarizability Calculation                      ... off
GBWName                                         ... TSC_2.gbw
Electron density file                           ... TSC_2.scfp.tmp
The origin for moment calculation is the CENTER OF MASS  = (-0.048952, -0.035489  0.000207)

-------------
DIPOLE MOMENT
-------------
                                X             Y             Z
Electronic contribution:     -0.06636      -1.65139       0.00327
Nuclear contribution   :      0.14723       2.14835      -0.00417
                        -----------------------------------------
Total Dipole Moment    :      0.08087       0.49696      -0.00090
                        -----------------------------------------
Magnitude (a.u.)       :      0.50350
Magnitude (Debye)      :      1.27978


-------------------------------------------------------------------------------
                               ORCA SCF HESSIAN
-------------------------------------------------------------------------------

Hessian of the Hartree-Fock SCF energy:
Hartree-Fock type                                ... UHF
Number of operators                              ...    2
Number of atoms                                  ...   10
Basis set dimensions                             ...   22
Integral neglect threshold                       ... 2.5e-11
Integral primitive cutoff                        ... 2.5e-12

Nuclear repulsion Hessian                        ... done   (      0.0 sec)

----------------------------------------------
Forming right-hand sides of CP-SCF equations     ...
----------------------------------------------
One electron integral derivatives                ... done   (      0.1 sec)
Transforming the overlap derivative matrices     ... done   (      0.0 sec)
Making the Q(x) pseudodensities                  ... done   (      0.0 sec)
Adding the E*S(x)*S(y) terms to the Hessian      ... done   (      0.0 sec)
Calculating energy weighted overlap derivatives  ... done   (      0.0 sec)
Two electron integral derivatives                ... done   (      0.1 sec)
tr(F(y)Q(x)) contribution to the Hessian         ... done   (      0.0 sec)
Response fock operator R(S(x))                   ... done   (      0.1 sec)
tr(F(y)S(x)) contribution to the Hessian         ... done   (      0.0 sec)
Transforming and finalizing RHSs                 ... done   (      0.0 sec)

----------------------------------------------
Solving the CP-SCF equations                     ...
----------------------------------------------
     CP-SCF ITERATION   0: 
     CP-SCF ITERATION   1:      0.004162843137
     CP-SCF ITERATION   2:      0.000380306345
     CP-SCF ITERATION   3:      0.000069011770
     CP-SCF ITERATION   4:      0.000007769708
     CP-SCF ITERATION   5:      0.000000774284
     CP-SCF ITERATION   6:      0.000000182481
     CP-SCF ITERATION   7:      0.000000023885
     CP-SCF ITERATION   8:      0.000000009891

                                                 ... done   (      1.1 sec)
Forming perturbed density Hessian contributions  ... done   (      0.0 sec)
Making the perturbed densities                   ... done   (      0.0 sec)
2nd integral derivative contribs                 ... done   (      0.4 sec)
Dipol derivatives                                ... done   (      0.1 sec)

Total SCF Hessian time: 0 days 0 hours 0 min 1 sec 

Writing the Hessian file to the disk             ... done


-----------------------
VIBRATIONAL FREQUENCIES
-----------------------

   0:         0.00 cm**-1
   1:         0.00 cm**-1
   2:         0.00 cm**-1
   3:         0.00 cm**-1
   4:         0.00 cm**-1
   5:         0.00 cm**-1
   6:     -2522.10 cm**-1 ***imaginary mode***
   7:       151.44 cm**-1
   8:       226.54 cm**-1
   9:       348.35 cm**-1
  10:       483.34 cm**-1
  11:       887.56 cm**-1
  12:       958.37 cm**-1
  13:      1075.97 cm**-1
  14:      1237.35 cm**-1
  15:      1342.17 cm**-1
  16:      1343.76 cm**-1
  17:      1506.19 cm**-1
  18:      1564.44 cm**-1
  19:      1696.78 cm**-1
  20:      1752.99 cm**-1
  21:      1819.40 cm**-1
  22:      1823.27 cm**-1
  23:      1844.02 cm**-1
  24:      1975.23 cm**-1
  25:      3546.55 cm**-1
  26:      3573.68 cm**-1
  27:      3658.55 cm**-1
  28:      3758.18 cm**-1
  29:      3760.24 cm**-1


------------
NORMAL MODES
------------

These modes are the cartesian displacements weighted by the diagonal matrix
M(i,i)=1/sqrt(m[i]) where m[i] is the mass of the displaced atom
Thus, these vectors are normalized but *not* orthogonal

                  0          1          2          3          4          5    
      0       0.000000   0.000000   0.000000   0.000000   0.000000   0.000000
      1       0.000000   0.000000   0.000000   0.000000   0.000000   0.000000
      2       0.000000   0.000000   0.000000   0.000000   0.000000   0.000000
      3       0.000000   0.000000   0.000000   0.000000   0.000000   0.000000
      4       0.000000   0.000000   0.000000   0.000000   0.000000   0.000000
      5       0.000000   0.000000   0.000000   0.000000   0.000000   0.000000
      6       0.000000   0.000000   0.000000   0.000000   0.000000   0.000000
      7       0.000000   0.000000   0.000000   0.000000   0.000000   0.000000
      8       0.000000   0.000000   0.000000   0.000000   0.000000   0.000000
      9       0.000000   0.000000   0.000000   0.000000   0.000000   0.000000
     10       0.000000   0.000000   0.000000   0.000000   0.000000   0.000000
     11       0.000000   0.000000   0.000000   0.000000   0.000000   0.000000
     12       0.000000   0.000000   0.000000   0.000000   0.000000   0.000000
     13       0.000000   0.000000   0.000000   0.000000   0.000000   0.000000
     14       0.000000   0.000000   0.000000   0.000000   0.000000   0.000000
     15       0.000000   0.000000   0.000000   0.000000   0.000000   0.000000
     16       0.000000   0.000000   0.000000   0.000000   0.000000   0.000000
     17       0.000000   0.000000   0.000000   0.000000   0.000000   0.000000
     18       0.000000   0.000000   0.000000   0.000000   0.000000   0.000000
     19       0.000000   0.000000   0.000000   0.000000   0.000000   0.000000
     20       0.000000   0.000000   0.000000   0.000000   0.000000   0.000000
     21       0.000000   0.000000   0.000000   0.000000   0.000000   0.000000
     22       0.000000   0.000000   0.000000   0.000000   0.000000   0.000000
     23       0.000000   0.000000   0.000000   0.000000   0.000000   0.000000
     24       0.000000   0.000000   0.000000   0.000000   0.000000   0.000000
     25       0.000000   0.000000   0.000000   0.000000   0.000000   0.000000
     26       0.000000   0.000000   0.000000   0.000000   0.000000   0.000000
     27       0.000000   0.000000   0.000000   0.000000   0.000000   0.000000
     28       0.000000   0.000000   0.000000   0.000000   0.000000   0.000000
     29       0.000000   0.000000   0.000000   0.000000   0.000000   0.000000
                  6          7          8          9         10         11    
      0       0.000069  -0.000027  -0.000002  -0.065334   0.162862  -0.000011
      1       0.002457  -0.000097   0.000001  -0.067915   0.018416  -0.000003
      2      -0.000003  -0.068658  -0.008053   0.000123  -0.000077  -0.004721
      3      -0.005604   0.000029   0.000028   0.020086   0.048630  -0.000009
      4      -0.008371   0.000094   0.000088   0.095082  -0.117538  -0.000049
      5       0.000012   0.067037   0.078894  -0.000096   0.000145  -0.027187
      6      -0.005990   0.000002  -0.000030   0.079923  -0.170036   0.000018
      7       0.007542   0.000141  -0.000085   0.047642   0.081913  -0.000045
      8      -0.000012   0.083477  -0.055772  -0.000146  -0.000064  -0.023946
      9       0.006127   0.000015  -0.000166   0.063334  -0.016503  -0.000041
     10      -0.003205  -0.000071  -0.000596  -0.211089   0.220613   0.000102
     11      -0.000001  -0.015234  -0.589302   0.000183  -0.000275   0.048606
     12      -0.002664   0.036275   0.285033  -0.182410   0.334156  -0.091915
     13       0.000390  -0.104281   0.387792  -0.089569   0.052336   0.058877
     14      -0.001789  -0.146499   0.234774  -0.002185   0.005679   0.047556
     15      -0.002657  -0.036411  -0.284898  -0.182426   0.334061   0.091989
     16       0.000392   0.103912  -0.387265  -0.089695   0.052366  -0.058747
     17       0.001789  -0.146700   0.235740   0.002628  -0.006033   0.047624
     18       0.005791   0.052726  -0.004452   0.041630   0.109935   0.051860
     19       0.008216  -0.043215  -0.093499   0.090804  -0.098899  -0.116472
     20      -0.002619   0.105068   0.147015   0.005505  -0.007330   0.060244
     21       0.005800  -0.052614   0.004574   0.041644   0.109956  -0.051818
     22       0.008237   0.043508   0.093855   0.090932  -0.098801   0.116597
     23       0.002597   0.105000   0.146762  -0.005601   0.007578   0.059976
     24       0.654074   0.000003   0.000007  -0.020480  -0.110740   0.000026
     25      -0.428009  -0.000561  -0.000030  -0.118588   0.206988   0.001548
     26       0.000649  -0.324201  -0.058135   0.000171  -0.000301   0.882577
     27      -0.505447  -0.000065   0.000075  -0.490675  -0.582129  -0.000142
     28       0.364737  -0.001494   0.000033  -0.752679  -0.453621  -0.000572
     29      -0.000543  -0.883070  -0.075761   0.001290   0.000879  -0.386313
                 12         13         14         15         16         17    
      0      -0.000008  -0.194630   0.080154  -0.000615  -0.053737   0.000033
      1      -0.000046  -0.010078  -0.177471  -0.000214  -0.028777   0.000132
      2      -0.042020   0.000077   0.000206   0.082393  -0.001306   0.099449
      3      -0.000018   0.037790  -0.186389   0.001491   0.127811  -0.000019
      4      -0.000082  -0.141674   0.102096   0.001674   0.158633  -0.000076
      5      -0.068748   0.000167  -0.000076  -0.150432   0.002243  -0.054024
      6      -0.000006   0.100292   0.052960  -0.001216  -0.102596  -0.000006
      7       0.000045   0.083561   0.056864  -0.001427  -0.126796  -0.000021
      8       0.034251  -0.000139  -0.000099   0.053953  -0.000694  -0.019808
      9      -0.000003  -0.659107  -0.267041  -0.002872  -0.246519   0.000034
     10       0.000239   0.489451   0.217459   0.001932   0.182823  -0.000162
     11       0.174894  -0.000358  -0.000225  -0.164212   0.002560  -0.119874
     12      -0.353929   0.145852   0.523099   0.269771   0.130675   0.254192
     13       0.235356   0.113904  -0.085156  -0.188734   0.058607  -0.190185
     14       0.165204   0.041174   0.029669  -0.081338   0.037114  -0.056862
     15       0.354105   0.145720   0.522846  -0.266849   0.139437  -0.254316
     16      -0.234979   0.113940  -0.085070   0.189885   0.052362   0.190055
     17       0.165509  -0.041556  -0.029811  -0.082425  -0.034646  -0.057100
     18       0.247971   0.232560  -0.156395  -0.345184   0.514279   0.617862
     19      -0.356662  -0.127796   0.126441  -0.456200   0.209114  -0.017514
     20       0.216101   0.000819   0.002279   0.147385  -0.003367   0.009700
     21      -0.247782   0.232559  -0.156321   0.357502   0.502730  -0.617798
     22       0.357241  -0.127751   0.126599   0.461358   0.193891   0.017527
     23       0.215352  -0.000637  -0.002405   0.145916  -0.002437   0.010134
     24      -0.000042   0.135498  -0.147469  -0.003192  -0.261807  -0.000046
     25      -0.000532   0.100352  -0.337517  -0.004181  -0.332233  -0.000074
     26      -0.256582  -0.000298   0.000592  -0.022502   0.000994  -0.010534
     27       0.000083   0.043934   0.106552  -0.000315  -0.033030  -0.000002
     28       0.000150  -0.080155   0.032845   0.001201   0.100625   0.000012
     29       0.095771   0.000164  -0.000072   0.011573  -0.000365  -0.002336
                 18         19         20         21         22         23    
      0      -0.032086   0.078408   0.126080   0.000009  -0.003264  -0.017064
      1      -0.062682  -0.056560  -0.038643   0.000050  -0.049280  -0.027777
      2       0.000108   0.000040   0.000013   0.057498   0.000036   0.000037
      3       0.085518   0.101557  -0.143636  -0.000003  -0.033975  -0.001018
      4       0.090562  -0.003577   0.014276   0.000030   0.040740  -0.078957
      5      -0.000195  -0.000013   0.000017   0.013525  -0.000051   0.000104
      6      -0.010032  -0.013668   0.013515  -0.000000   0.008232  -0.010405
      7      -0.084432   0.031165  -0.037765   0.000001  -0.002574   0.008679
      8       0.000154  -0.000051   0.000061  -0.001040   0.000006  -0.000017
      9      -0.197873  -0.310035  -0.209070  -0.000130   0.141567   0.127496
     10       0.117731   0.368395   0.333982  -0.000847  -0.199257  -0.185017
     11      -0.000140  -0.000319  -0.000345  -0.728198   0.000402   0.000128
     12       0.143910  -0.368095  -0.379981  -0.429650   0.025742   0.040459
     13       0.037020   0.111471  -0.012323  -0.212544   0.433582   0.305156
     14       0.053858   0.166333   0.077916  -0.052046   0.335518   0.228441
     15       0.143746  -0.368160  -0.379972   0.429672   0.025285   0.040384
     16       0.037031   0.111124  -0.012453   0.212670   0.432746   0.304688
     17      -0.054045  -0.166384  -0.077709  -0.052886  -0.336422  -0.229111
     18      -0.364186  -0.316262   0.345304  -0.011900   0.087238  -0.015484
     19       0.067965  -0.033336   0.120036   0.020043  -0.302578   0.421517
     20      -0.017295  -0.013670  -0.031536   0.002418   0.253556  -0.361283
     21      -0.364191  -0.316265   0.345324   0.011948   0.087027  -0.015220
     22       0.068191  -0.033389   0.120191  -0.020286  -0.303217   0.422461
     23       0.017442   0.013992   0.030954   0.002260  -0.252828   0.360181
     24       0.340115  -0.250204   0.275683  -0.000004  -0.006987   0.083988
     25       0.668101  -0.357578   0.394353  -0.000011   0.049992  -0.045385
     26      -0.001228   0.000637  -0.000702  -0.000991  -0.000100   0.000103
     27      -0.178965   0.001554  -0.002603   0.000004  -0.046798   0.118974
     28       0.011854   0.055242  -0.054021  -0.000002   0.031342  -0.089363
     29       0.000009  -0.000094   0.000091  -0.000336  -0.000046   0.000134
                 24         25         26         27         28         29    
      0       0.000822  -0.000726   0.047530   0.000002   0.044070  -0.000078
      1      -0.004129  -0.002444  -0.024024   0.000006   0.085341  -0.000206
      2       0.000004   0.000003   0.000014   0.006318  -0.000218  -0.095926
      3       0.023466  -0.009894  -0.003005  -0.000039  -0.000243  -0.000002
      4       0.037877   0.070653   0.004228  -0.000114   0.001144  -0.000008
      5      -0.000057  -0.000074  -0.000004  -0.096265  -0.000008  -0.005131
      6      -0.088075  -0.000504  -0.000276  -0.000001  -0.000450   0.000000
      7       0.027408   0.000348  -0.000085  -0.000001   0.000093   0.000000
      8      -0.000049  -0.000001   0.000000   0.000002   0.000000   0.000052
      9      -0.028456   0.024173  -0.430275  -0.000001  -0.595495   0.000721
     10       0.030075   0.026747  -0.394148   0.000001  -0.544087   0.000655
     11      -0.000001  -0.000037   0.000529   0.002309   0.000719  -0.004739
     12       0.004746   0.005153  -0.047758   0.001498   0.037287   0.059370
     13      -0.016444  -0.011361   0.328578   0.023230  -0.234161  -0.404878
     14      -0.009613   0.010823  -0.466337  -0.034510   0.338199   0.570440
     15       0.004714   0.005147  -0.047520  -0.001516   0.036969  -0.059170
     16      -0.016432  -0.011378   0.329558  -0.023301  -0.233886   0.406664
     17       0.009646  -0.010794   0.465655  -0.034454  -0.336330   0.570441
     18      -0.027659   0.044302  -0.000587  -0.049804   0.002726  -0.007585
     19      -0.080789  -0.408831  -0.013344   0.412107  -0.009018   0.025142
     20       0.089025  -0.572280  -0.020916   0.566681  -0.008846   0.033456
     21      -0.027749   0.044737  -0.000571   0.050268   0.002751   0.007606
     22      -0.081052  -0.407190  -0.013279  -0.410749  -0.009053  -0.025034
     23      -0.088813   0.573137   0.020939   0.567917   0.008947   0.033500
     24       0.578346   0.011181   0.000427   0.000006   0.000610   0.000000
     25      -0.212922  -0.005665  -0.000010   0.000005  -0.001709   0.000002
     26       0.000490   0.000009   0.000001   0.003334   0.000003   0.000179
     27       0.604578  -0.000144   0.000119   0.000000   0.000056   0.000000
     28      -0.459590  -0.000601  -0.000117  -0.000000  -0.000086   0.000000
     29       0.000683   0.000002   0.000000   0.000474   0.000000   0.000060


-----------
IR SPECTRUM
-----------

 Mode    freq (cm**-1)   T**2         TX         TY         TZ
-------------------------------------------------------------------
   7:       151.44    6.156037  ( -0.000963  -0.004023  -2.481133)
   8:       226.54    0.250617  (  0.000179   0.001261   0.500615)
   9:       348.35    1.306558  ( -1.103548  -0.297887   0.001311)
  10:       483.34    2.212445  (  1.436182   0.387070  -0.001419)
  11:       887.56   35.912416  ( -0.000464   0.007115   5.992693)
  12:       958.37    1.744140  ( -0.000262  -0.001697  -1.320658)
  13:      1075.97    0.418721  ( -0.280954   0.582909  -0.001865)
  14:      1237.35    2.433004  ( -1.542343  -0.232770   0.000563)
  15:      1342.17   10.541874  (  0.005442   0.008236  -3.246810)
  16:      1343.76    1.179182  (  0.502650   0.961486   0.045506)
  17:      1506.19    0.163338  ( -0.000577  -0.000049   0.404151)
  18:      1564.44   31.003783  (  5.041186   2.364362  -0.004715)
  19:      1696.78   16.817353  (  3.625184  -1.917131   0.002140)
  20:      1752.99   15.501221  ( -3.657514   1.457329  -0.001608)
  21:      1819.40    1.250245  ( -0.000645  -0.000579  -1.118143)
  22:      1823.27    3.572429  (  1.538697   1.097652  -0.000671)
  23:      1844.02   11.995646  ( -3.233350   1.241408  -0.001708)
  24:      1975.23  171.604120  (-11.595846   6.094294  -0.008174)
  25:      3546.55    7.287290  (  0.803715   2.577077  -0.002284)
  26:      3573.68    0.552267  (  0.710709  -0.217163  -0.000016)
  27:      3658.55   11.602418  ( -0.001052  -0.004662  -3.406229)
  28:      3758.18    0.562976  (  0.378854   0.647644  -0.001670)
  29:      3760.24    0.785877  ( -0.000547  -0.002065  -0.886495)

The first frequency considered to be a vibration is 7
The total number of vibrations considered is 23


--------------------------
THERMOCHEMISTRY AT 298.15K
--------------------------

Temperature         ... 298.15 K
Pressure            ... 1.00 atm
Total Mass          ... 47.08 AMU

Throughout the following assumptions are being made:
  (1) The electronic state is orbitally nondegenerate
      but the spin degeneracy is treated
  (2) There are no thermally accessible electronically excited states
  (3) Hindered rotations indicated by low frequency modes are not
      treated as such but are treated as vibrations and this may
      cause some error
  (4) All equations used are the standard statistical mechanics
      equations for an ideal gas
  (5) All vibrations are strictly harmonic

freq.     151.44  E(vib)   ...       0.40 
freq.     226.54  E(vib)   ...       0.33 
freq.     348.35  E(vib)   ...       0.23 
freq.     483.34  E(vib)   ...       0.15 
freq.     887.56  E(vib)   ...       0.04 
freq.     958.37  E(vib)   ...       0.03 
freq.    1075.97  E(vib)   ...       0.02 
freq.    1237.35  E(vib)   ...       0.01 
freq.    1342.17  E(vib)   ...       0.01 
freq.    1343.76  E(vib)   ...       0.01 
freq.    1506.19  E(vib)   ...       0.00 
freq.    1564.44  E(vib)   ...       0.00 
freq.    1696.78  E(vib)   ...       0.00 
freq.    1752.99  E(vib)   ...       0.00 
freq.    1819.40  E(vib)   ...       0.00 
freq.    1823.27  E(vib)   ...       0.00 
freq.    1844.02  E(vib)   ...       0.00 
freq.    1975.23  E(vib)   ...       0.00 
freq.    3546.55  E(vib)   ...       0.00 
freq.    3573.68  E(vib)   ...       0.00 
freq.    3658.55  E(vib)   ...       0.00 
freq.    3758.18  E(vib)   ...       0.00 
freq.    3760.24  E(vib)   ...       0.00 

------------
INNER ENERGY
------------

The inner energy is: U= E(el) + E(ZPE) + E(vib) + E(rot) + E(trans)
    E(el)   - is the total energy from the electronic structure calculation
              = E(kin-el) + E(nuc-el) + E(el-el) + E(nuc-nuc)
    E(ZPE)  - the the zero temperature vibrational energy from the frequency calculation
    E(vib)  - the the finite temperature correction to E(ZPE) due to population
              of excited vibrational states
    E(rot)  - is the rotational thermal energy
    E(trans)- is the translational thermal energy

Summary of contributions to the inner energy U:
Electronic energy                ...   -152.58556938 Eh
Zero point energy                ...      0.09188844 Eh      57.66 kcal/mol
Thermal vibrational correction   ...      0.00193824 Eh       1.22 kcal/mol
Thermal rotational correction    ...      0.00141627 Eh       0.89 kcal/mol
Thermal translational correction ...      0.00141627 Eh       0.89 kcal/mol
-----------------------------------------------------------------------
Total thermal energy                   -152.48891015 Eh


Summary of corrections to the electronic energy:
(perhaps to be used in another calculation)
Total thermal correction                  0.00477078 Eh       2.99 kcal/mol
Non-thermal (ZPE) correction              0.09188844 Eh      57.66 kcal/mol
-----------------------------------------------------------------------
Total correction                          0.09665922 Eh      60.65 kcal/mol


--------
ENTHALPY
--------

The enthalpy is H = U + kB*T
                kB is Boltzmann's constant
Total free energy                 ...   -152.48891015 Eh 
Thermal Enthalpy correction       ...      0.00094421 Eh       0.59 kcal/mol
-----------------------------------------------------------------------
Total Enthalpy                    ...   -152.48796594 Eh


Vibrational entropy computed according to the QRRHO of S. Grimme
Chem.Eur.J. 2012 18 9955


-------
ENTROPY
-------

The entropy contributions are T*S = T*(S(el)+S(vib)+S(rot)+S(trans)
     S(el)   - electronic entropy
     S(vib)  - vibrational entropy
     S(rot)  - rotational entropy
     S(trans)- translational entropy
The entropies will be listed as mutliplied by the temperature to get
units of energy

Electronic entropy                ...      0.00065446 Eh      0.41 kcal/mol
Vibrational entropy               ...      0.00325820 Eh      2.04 kcal/mol
Rotational entropy                ...      0.00974695 Eh      6.12 kcal/mol
Translational entropy             ...      0.01780424 Eh     11.17 kcal/mol
-----------------------------------------------------------------------
Final entropy term                ...      0.03146385 Eh     19.74 kcal/mol


CAUTION: The rotational entropy is not quite correctly treated here
         because it includes a symmetry number that is not yet correctly
         implemented in ORCA!
For a nonlinear molecule the correct rotational entropy is:
    S(rot) = R*(ln(qrot/sn)+1.5)
    R    = 8.31441 J/mol/K = 1.987191683e-3 kcal/mol/K
    qrot = 20369.4677818
    sn is the rotational symmetry number. We have assumed 3 here
       if it is different for your molecule then you should correct
       the printed rotational entropy by manually evaluating the equation
       as given above

For convenience we print out the resulting values for sn=1 - 12:
 sn= 1  qrot/sn=   20369.4678 T*S(rot)=     6.77 kcal/mol T*S(tot)=    20.39 kcal/mol
 sn= 2  qrot/sn=   10184.7339 T*S(rot)=     6.36 kcal/mol T*S(tot)=    19.98 kcal/mol
 sn= 3  qrot/sn=    6789.8226 T*S(rot)=     6.12 kcal/mol T*S(tot)=    19.74 kcal/mol
 sn= 4  qrot/sn=    5092.3669 T*S(rot)=     5.95 kcal/mol T*S(tot)=    19.57 kcal/mol
 sn= 5  qrot/sn=    4073.8936 T*S(rot)=     5.81 kcal/mol T*S(tot)=    19.44 kcal/mol
 sn= 6  qrot/sn=    3394.9113 T*S(rot)=     5.71 kcal/mol T*S(tot)=    19.33 kcal/mol
 sn= 7  qrot/sn=    2909.9240 T*S(rot)=     5.61 kcal/mol T*S(tot)=    19.24 kcal/mol
 sn= 8  qrot/sn=    2546.1835 T*S(rot)=     5.54 kcal/mol T*S(tot)=    19.16 kcal/mol
 sn= 9  qrot/sn=    2263.2742 T*S(rot)=     5.47 kcal/mol T*S(tot)=    19.09 kcal/mol
 sn=10  qrot/sn=    2036.9468 T*S(rot)=     5.40 kcal/mol T*S(tot)=    19.03 kcal/mol
 sn=11  qrot/sn=    1851.7698 T*S(rot)=     5.35 kcal/mol T*S(tot)=    18.97 kcal/mol
 sn=12  qrot/sn=    1697.4556 T*S(rot)=     5.29 kcal/mol T*S(tot)=    18.92 kcal/mol


-------------------
GIBBS FREE ENTHALPY
-------------------

The Gibbs free enthalpy is G = H - T*S

Total enthalpy                    ...   -152.48796594 Eh 
Total entropy correction          ...     -0.03146385 Eh    -19.74 kcal/mol
-----------------------------------------------------------------------
Final Gibbs free enthalpy         ...   -152.51942979 Eh

For completeness - the Gibbs free enthalpy minus the electronic energy
G-E(el)                           ...      0.06613958 Eh     41.50 kcal/mol


Timings for individual modules:

Sum of individual times         ...        4.783 sec (=   0.080 min)
GTO integral calculation        ...        0.298 sec (=   0.005 min)   6.2 %
SCF iterations                  ...        2.445 sec (=   0.041 min)  51.1 %
SCF Gradient evaluation         ...        0.136 sec (=   0.002 min)   2.8 %
Geometry relaxation             ...        0.022 sec (=   0.000 min)   0.5 %
Analytical frequency calculation...        1.883 sec (=   0.031 min)  39.4 %
                             ****ORCA TERMINATED NORMALLY****
TOTAL RUN TIME: 0 days 0 hours 0 minutes 4 seconds 906 msec
