The reactant: E conformer of formic acid                                
Freq      RHF                                                         STO-3G              
Number of atoms                            I                5
Info1-9                                    I   N=           9
          14          14        1002           0           0         100
           6           1           2
Charge                                     I                0
Multiplicity                               I                1
Number of electrons                        I               24
Number of alpha electrons                  I               12
Number of beta electrons                   I               12
Number of basis functions                  I               17
Number of independent functions            I               17
Number of point charges in /Mol/           I                0
Number of translation vectors              I                0
Atomic numbers                             I   N=           5
           6           8           8           1           1
Nuclear charges                            R   N=           5
  6.00000000E+00  8.00000000E+00  8.00000000E+00  1.00000000E+00  1.00000000E+00
Current cartesian coordinates              R   N=          15
  7.73330384E-33  7.60456210E-01 -1.23259516E-32 -1.72207153E+00 -1.22937345E+00
  0.00000000E+00  2.25773699E+00  3.80861847E-01  0.00000000E+00 -3.41291541E+00
 -4.37739405E-01 -3.94430453E-31 -8.72408323E-01  2.66309499E+00 -4.93038066E-32
Force Field                                I                0
Int Atom Types                             I   N=           5
           0           0           0           0           0
MM charges                                 R   N=           5
  0.00000000E+00  0.00000000E+00  0.00000000E+00  0.00000000E+00  0.00000000E+00
Integer atomic weights                     I   N=           5
          12          16          16           1           1
Real atomic weights                        R   N=           5
  1.20000000E+01  1.59949146E+01  1.59949146E+01  1.00782504E+00  1.00782504E+00
Atom fragment info                         I   N=           5
           0           0           0           0           0
Atom residue num                           I   N=           5
           0           0           0           0           0
Nuclear spins                              I   N=           5
           0           0           0           1           1
Nuclear ZEff                               R   N=           5
 -3.60000000E+00 -5.60000000E+00 -5.60000000E+00 -1.00000000E+00 -1.00000000E+00
Nuclear QMom                               R   N=           5
  0.00000000E+00  0.00000000E+00  0.00000000E+00  0.00000000E+00  0.00000000E+00
Nuclear GFac                               R   N=           5
  0.00000000E+00  0.00000000E+00  0.00000000E+00  2.79284600E+00  2.79284600E+00
MicOpt                                     I   N=           5
          -1          -1          -1          -1          -1
Number of contracted shells                I                8
Number of primitive shells                 I               24
Pure/Cartesian d shells                    I                0
Pure/Cartesian f shells                    I                0
Highest angular momentum                   I                1
Largest degree of contraction              I                3
Shell types                                I   N=           8
           0          -1           0          -1           0          -1
           0           0
Number of primitives per shell             I   N=           8
           3           3           3           3           3           3
           3           3
Shell to atom map                          I   N=           8
           1           1           2           2           3           3
           4           5
Primitive exponents                        R   N=          24
  7.16168373E+01  1.30450963E+01  3.53051216E+00  2.94124936E+00  6.83483096E-01
  2.22289916E-01  1.30709321E+02  2.38088661E+01  6.44360831E+00  5.03315132E+00
  1.16959612E+00  3.80388960E-01  1.30709321E+02  2.38088661E+01  6.44360831E+00
  5.03315132E+00  1.16959612E+00  3.80388960E-01  3.42525091E+00  6.23913730E-01
  1.68855404E-01  3.42525091E+00  6.23913730E-01  1.68855404E-01
Contraction coefficients                   R   N=          24
  1.54328967E-01  5.35328142E-01  4.44634542E-01 -9.99672292E-02  3.99512826E-01
  7.00115469E-01  1.54328967E-01  5.35328142E-01  4.44634542E-01 -9.99672292E-02
  3.99512826E-01  7.00115469E-01  1.54328967E-01  5.35328142E-01  4.44634542E-01
 -9.99672292E-02  3.99512826E-01  7.00115469E-01  1.54328967E-01  5.35328142E-01
  4.44634542E-01  1.54328967E-01  5.35328142E-01  4.44634542E-01
P(S=P) Contraction coefficients            R   N=          24
  0.00000000E+00  0.00000000E+00  0.00000000E+00  1.55916275E-01  6.07683719E-01
  3.91957393E-01  0.00000000E+00  0.00000000E+00  0.00000000E+00  1.55916275E-01
  6.07683719E-01  3.91957393E-01  0.00000000E+00  0.00000000E+00  0.00000000E+00
  1.55916275E-01  6.07683719E-01  3.91957393E-01  0.00000000E+00  0.00000000E+00
  0.00000000E+00  0.00000000E+00  0.00000000E+00  0.00000000E+00
Coordinates of each shell                  R   N=          24
  7.73330384E-33  7.60456210E-01 -6.16297582E-33  7.73330384E-33  7.60456210E-01
 -6.16297582E-33 -1.72207153E+00 -1.22937345E+00  0.00000000E+00 -1.72207153E+00
 -1.22937345E+00  0.00000000E+00  2.25773699E+00  3.80861847E-01  0.00000000E+00
  2.25773699E+00  3.80861847E-01  0.00000000E+00 -3.41291541E+00 -4.37739405E-01
 -1.97215226E-31 -8.72408323E-01  2.66309499E+00 -2.46519033E-32
Constraint Structure                       R   N=          15
  7.73330384E-33  7.60456210E-01 -6.16297582E-33 -1.72207153E+00 -1.22937345E+00
  0.00000000E+00  2.25773699E+00  3.80861847E-01  0.00000000E+00 -3.41291541E+00
 -4.37739405E-01 -1.97215226E-31 -8.72408323E-01  2.66309499E+00 -2.46519033E-32
Num ILSW                                   I              100
ILSW                                       I   N=         100
           0           0           0           0           2           0
           0           0           0           0           0          -1
           0           0           0           0           0           0
           0           0           0           0           1           0
           1           0           0           0           0           0
           0           0      100000           0          -1           0
           0           0           0           0           0           0
           0           0           0           1           0           0
           0           0           1           0           0           0
           0           0           4          40           0           0
           0           0           0           0           0           0
           0           0           0           0           0           0
           0           0           0           0           0           0
           0           0           0           0           0           0
           0           0           0           0           0           0
           0           0           0           0           0           0
           0           0           0           0
Num RLSW                                   I               40
RLSW                                       R   N=          40
  1.00000000E+00  1.00000000E+00  1.00000000E+00  1.00000000E+00  1.00000000E+00
  0.00000000E+00  0.00000000E+00  1.00000000E+00  0.00000000E+00  0.00000000E+00
  0.00000000E+00  0.00000000E+00  1.00000000E+00  0.00000000E+00  0.00000000E+00
  0.00000000E+00  0.00000000E+00  1.00000000E+00  0.00000000E+00  0.00000000E+00
  0.00000000E+00  0.00000000E+00  1.00000000E+00  0.00000000E+00  0.00000000E+00
  0.00000000E+00  0.00000000E+00  1.00000000E+00  0.00000000E+00  0.00000000E+00
  0.00000000E+00  0.00000000E+00  1.00000000E+00  0.00000000E+00  0.00000000E+00
  0.00000000E+00  0.00000000E+00  0.00000000E+00  1.00000000E+00  1.00000000E+00
MxBond                                     I                3
NBond                                      I   N=           5
           3           2           1           1           1
IBond                                      I   N=          15
           2           3           5           1           4           0
           1           0           0           2           0           0
           1           0           0
RBond                                      R   N=          15
  1.00000000E+00  2.00000000E+00  1.00000000E+00  1.00000000E+00  1.00000000E+00
  0.00000000E+00  2.00000000E+00  0.00000000E+00  0.00000000E+00  1.00000000E+00
  0.00000000E+00  0.00000000E+00  1.00000000E+00  0.00000000E+00  0.00000000E+00
Virial Ratio                               R      2.009168416009342E+00
SCF Energy                                 R     -1.862108146217813E+02
Total Energy                               R     -1.862108146217813E+02
RMS Force                                  R      4.350589642667801E-06
RMS Density                                R      3.907334667215175E-10
External E-field                           R   N=          35
  0.00000000E+00  0.00000000E+00  0.00000000E+00  0.00000000E+00  0.00000000E+00
  0.00000000E+00  0.00000000E+00  0.00000000E+00  0.00000000E+00  0.00000000E+00
  0.00000000E+00  0.00000000E+00  0.00000000E+00  0.00000000E+00  0.00000000E+00
  0.00000000E+00  0.00000000E+00  0.00000000E+00  0.00000000E+00  0.00000000E+00
  0.00000000E+00  0.00000000E+00  0.00000000E+00  0.00000000E+00  0.00000000E+00
  0.00000000E+00  0.00000000E+00  0.00000000E+00  0.00000000E+00  0.00000000E+00
  0.00000000E+00  0.00000000E+00  0.00000000E+00  0.00000000E+00  0.00000000E+00
IOpCl                                      I                0
IROHF                                      I                0
Alpha Orbital Energies                     R   N=          17
 -2.03141480E+01 -2.02869605E+01 -1.11793589E+01 -1.37435741E+00 -1.28792885E+00
 -7.81782222E-01 -6.85283923E-01 -5.46052666E-01 -5.31177161E-01 -4.84550737E-01
 -3.62859857E-01 -3.55064052E-01  2.97624767E-01  5.50606752E-01  5.93272616E-01
  7.48121544E-01  9.43038707E-01
Alpha MO coefficients                      R   N=         289
  5.11492783E-04 -4.49720329E-03  2.74311126E-03  3.36129279E-03  0.00000000E+00
  9.94172054E-01  2.60568247E-02 -7.10084234E-04  4.03149756E-03  0.00000000E+00
  1.35981059E-03  2.91486602E-04 -2.58688420E-04 -4.40166871E-04  0.00000000E+00
 -5.69536346E-03  4.26651463E-04  5.31346953E-04 -7.33933652E-03 -6.35832980E-03
  1.17273990E-03  0.00000000E+00 -1.43288860E-03  3.08316020E-04  4.05568825E-04
 -1.28346726E-04  0.00000000E+00  9.94253705E-01  2.61728699E-02 -5.71738721E-03
  9.40315079E-04  0.00000000E+00 -1.16238899E-04  1.50320278E-04  9.92786418E-01
  3.13343300E-02  5.43296824E-04  9.80456473E-05  0.00000000E+00  3.73297533E-04
 -4.25612435E-03 -2.06932115E-03 -1.56934057E-03  0.00000000E+00  1.03989617E-04
 -5.56475306E-03  1.46370513E-03 -1.86132935E-04  0.00000000E+00 -1.05789651E-03
 -6.41779987E-03 -1.32721048E-01  3.09289553E-01  5.57646479E-02 -6.66652916E-02
  0.00000000E+00 -1.50256017E-01  5.32067673E-01  1.10305392E-02  9.48962669E-02
  0.00000000E+00 -1.50160391E-01  5.17007375E-01 -1.32121718E-01  1.64777061E-02
  0.00000000E+00  8.27638537E-02  3.42464213E-02  3.28049939E-02 -6.73116802E-02
 -2.00408498E-01 -4.27493554E-02  0.00000000E+00 -1.71634724E-01  6.23181043E-01
 -3.65912938E-02  8.47349750E-02  0.00000000E+00  1.60095302E-01 -5.63220659E-01
  1.07039427E-01 -2.87008316E-02  0.00000000E+00  1.19277562E-01 -6.70492089E-03
 -1.70374075E-01  5.57143895E-01 -1.91953236E-01  1.80724507E-01  0.00000000E+00
  6.27066911E-02 -2.76216309E-01  1.88916332E-01  1.84232310E-01  0.00000000E+00
  8.77072662E-02 -3.80636012E-01 -1.41650484E-01  8.76573882E-02  0.00000000E+00
 -1.44260432E-01  3.36408836E-01 -2.57891618E-02  1.08738752E-01 -1.61053916E-02
 -4.20987169E-01  0.00000000E+00 -1.17724818E-02  5.89965422E-02  4.84836415E-01
 -5.97821894E-03  0.00000000E+00  3.19867942E-02 -1.54166303E-01 -1.37615740E-01
 -2.47409468E-01  0.00000000E+00 -3.57909432E-01 -2.02926877E-01  3.05506264E-02
 -8.78469424E-02 -4.48363083E-01 -5.74798824E-02  0.00000000E+00  3.84416910E-02
 -1.96700522E-01  9.44045767E-02  3.54655764E-01  0.00000000E+00 -9.45274943E-02
  5.00846173E-01  5.57243335E-01 -2.34012535E-01  0.00000000E+00 -2.26188591E-02
  6.92347567E-02  0.00000000E+00  0.00000000E+00  0.00000000E+00  0.00000000E+00
  5.23038127E-01  0.00000000E+00  0.00000000E+00  0.00000000E+00  0.00000000E+00
  6.19439377E-01  0.00000000E+00  0.00000000E+00  0.00000000E+00  0.00000000E+00
  3.98231695E-01  0.00000000E+00  0.00000000E+00 -2.88577572E-02  9.13593931E-02
  7.56108870E-02 -2.28162689E-01  0.00000000E+00  8.59449065E-02 -4.43305868E-01
 -3.02766899E-01  5.39524879E-01  0.00000000E+00  3.00875954E-02 -1.60414273E-01
 -3.47750389E-01 -2.96184046E-01  0.00000000E+00  3.48727668E-01 -1.73383316E-01
  0.00000000E+00  0.00000000E+00  0.00000000E+00  0.00000000E+00 -2.99830102E-01
  0.00000000E+00  0.00000000E+00  0.00000000E+00  0.00000000E+00  7.38982976E-01
  0.00000000E+00  0.00000000E+00  0.00000000E+00  0.00000000E+00 -5.98032479E-01
  0.00000000E+00  0.00000000E+00  2.83395315E-03  1.00948707E-02  1.25823898E-03
 -1.11531552E-01  0.00000000E+00  5.11351816E-03 -2.63844720E-02  1.35173317E-01
  4.15734852E-01  0.00000000E+00  4.91345131E-04 -2.80126657E-03  9.10526041E-02
  8.35931386E-01  0.00000000E+00 -1.94463204E-02 -3.57949429E-01  0.00000000E+00
  0.00000000E+00  0.00000000E+00  0.00000000E+00  8.40119665E-01  0.00000000E+00
  0.00000000E+00  0.00000000E+00  0.00000000E+00 -3.03205776E-01  0.00000000E+00
  0.00000000E+00  0.00000000E+00  0.00000000E+00 -7.28682455E-01  0.00000000E+00
  0.00000000E+00 -4.65709192E-02  2.35379647E-01 -9.42329789E-02 -4.78070620E-01
  0.00000000E+00  1.21923151E-01 -7.88089138E-01  4.26453438E-01 -5.50369481E-01
  0.00000000E+00  1.59425815E-02 -9.88392528E-02  1.68043897E-01  1.75044388E-01
  0.00000000E+00  9.93536691E-01  1.28181312E-01 -1.99409934E-01  1.17907053E+00
 -4.32684314E-01  2.01229621E-01  0.00000000E+00  4.21249734E-02 -2.51543040E-01
 -4.53555261E-01 -3.98324910E-01  0.00000000E+00  2.62554305E-02 -1.46127962E-01
  2.19529843E-01 -5.84997249E-02  0.00000000E+00 -1.87429813E-01 -9.87301482E-01
 -9.69017520E-03  1.37117804E-01  3.55827313E-01  9.71770762E-01  0.00000000E+00
 -2.41155069E-02  1.50783712E-01  7.16876713E-01  2.25979837E-01  0.00000000E+00
  1.80153941E-02 -1.31753986E-01  1.08614651E-01 -3.28518729E-01  0.00000000E+00
  4.95688603E-01 -6.70747275E-01 -9.56327547E-02  6.52970744E-01  1.12029733E+00
 -3.45228749E-01  0.00000000E+00 -9.27450286E-03  7.11679576E-02 -1.91246521E-01
  1.72043109E-01  0.00000000E+00  1.14668359E-01 -8.63250131E-01  9.12783056E-01
 -1.17942450E-01  0.00000000E+00 -1.10547724E-01  2.54253613E-01
Total SCF Density                          R   N=         153
  2.07156602E+00 -2.30348101E-01  8.79291575E-01  7.60978402E-03 -6.32009039E-02
  5.74349965E-01 -1.57530939E-02  4.04573375E-02 -2.93579311E-02  5.67954865E-01
  0.00000000E+00  0.00000000E+00  3.58406107E-32  4.48007633E-33  7.26933946E-01
  7.03750996E-03 -2.37068019E-03  1.23526782E-02  2.91870613E-02  0.00000000E+00
  2.10675355E+00 -4.27543226E-03 -9.72023631E-02  2.31175010E-02 -4.27689320E-02
  0.00000000E+00 -4.49628770E-01  1.97566232E+00 -7.48090125E-02  2.58389838E-01
 -2.02357665E-01 -2.41127313E-01  0.00000000E+00 -2.32935352E-02  1.43121519E-01
  7.82146242E-01 -9.23232260E-02  2.95812562E-01 -3.29287879E-01 -3.27951864E-01
  0.00000000E+00  9.79144570E-02 -5.35473945E-01 -8.76406538E-02  1.27976921E+00
  0.00000000E+00  0.00000000E+00  1.00994973E-32  1.26243716E-33  2.04842141E-01
  0.00000000E+00  0.00000000E+00  9.16854554E-32  1.14606819E-32  1.85960196E+00
  1.25817986E-02 -2.23575132E-03 -3.89375067E-02  1.04713637E-02  0.00000000E+00
 -1.82056236E-03  6.23594129E-03  1.39967432E-02 -3.85287281E-03  0.00000000E+00
  2.11055522E+00 -7.71203185E-03 -1.80131554E-01 -3.92200018E-02 -1.22436338E-02
  0.00000000E+00  5.26743188E-03 -1.43075745E-02 -4.96967690E-02  4.41124500E-02
  0.00000000E+00 -4.64536281E-01  2.06093741E+00  1.54993540E-01 -4.43333942E-01
 -5.50805517E-01  1.47435053E-01  0.00000000E+00 -2.80615907E-02  1.39094386E-01
  1.42682099E-01  3.82378697E-02  0.00000000E+00 -9.72549773E-02  5.62005320E-01
  1.01538496E+00 -1.62001605E-02  6.17780434E-02  1.54803257E-01  2.15845084E-01
  0.00000000E+00 -3.95126055E-02  2.14674510E-01  1.56836639E-01  2.42983503E-01
  0.00000000E+00  1.45187290E-02 -8.50952818E-02  1.30171858E-01  1.82251953E+00
  0.00000000E+00  0.00000000E+00  3.82201629E-32  4.77752036E-33  7.75196999E-01
  0.00000000E+00  0.00000000E+00 -1.92536717E-32 -2.40670896E-33 -3.90510856E-01
  0.00000000E+00  0.00000000E+00  5.09043392E-32  6.36304240E-33  1.03246266E+00
  2.97478947E-02 -1.36159332E-01  1.01271462E-01  7.57406972E-02  0.00000000E+00
 -2.88010589E-02 -2.53511681E-02 -6.29146447E-01  3.31085472E-01  0.00000000E+00
 -9.87127611E-03  3.69688383E-02 -1.28246818E-01 -8.08051751E-02  0.00000000E+00
  5.85043109E-01 -1.14228411E-01  3.01331330E-01 -2.05317437E-01  4.39468301E-01
  0.00000000E+00  1.16807309E-02 -3.62488859E-02 -4.71029687E-02 -3.03836306E-01
  0.00000000E+00  1.00217083E-02 -2.35024466E-02  8.26064041E-02 -3.67233907E-01
  0.00000000E+00 -5.78617021E-02  6.37184815E-01
QEq coupling tensors                       R   N=          30
 -1.02489403E-01 -5.61890995E-02 -3.75697070E-02 -4.90612379E-34 -5.05714791E-33
  1.40059110E-01 -2.08706340E+00 -3.55909385E-01 -9.08520873E-02  1.45949962E-31
 -7.89343776E-32  2.17791549E+00 -1.04530096E+00  5.11983013E-01  2.11448526E+00
  5.40667194E-33 -1.13263740E-34 -1.06918431E+00 -3.19770433E-01  2.03851901E-01
  9.24466889E-02 -1.26193357E-31  5.74139610E-32  2.27323744E-01  6.51332879E-02
  1.65426670E-01 -2.19947276E-01 -2.86978670E-33  5.48969752E-33  1.54813989E-01
Mulliken Charges                           R   N=           5
  2.54577094E-01 -2.81613875E-01 -2.28397831E-01  2.02150639E-01  5.32839731E-02
Optimization MaxStp                        I                2
Optimization Job offset                    I                0
Optimization Num results per geometry      I                2
Optimization Num geometry variables        I               15
Opt point       1 Results for each geome   R   N=           2
 -1.86210815E+02  0.00000000E+00
Opt point       1 Geometries               R   N=          15
  7.73330384E-33  7.60456210E-01 -6.16297582E-33 -1.72207153E+00 -1.22937345E+00
  0.00000000E+00  2.25773699E+00  3.80861847E-01  0.00000000E+00 -3.41291541E+00
 -4.37739405E-01 -1.97215226E-31 -8.72408323E-01  2.66309499E+00 -2.46519033E-32
Opt point       1 Gradient at each geome   R   N=          15
  1.95147980E-07 -3.24434958E-06 -1.48007493E-31  9.96341795E-06 -3.79029830E-06
  6.11489528E-31  3.03846238E-06 -5.81817305E-07  1.47057164E-31 -1.06532106E-05
  4.57522940E-06 -5.65000890E-31 -2.54381775E-06  3.04123578E-06 -4.55384631E-32
Optimization Number of geometries          I   N=           1
           1
ONIOM Charges                              I   N=          16
           0           0           0           0           0           0
           0           0           0           0           0           0
           0           0           0           0
ONIOM Multiplicities                       I   N=          16
           1           0           0           0           0           0
           0           0           0           0           0           0
           0           0           0           0
Atom Layers                                I   N=           5
           1           1           1           1           1
Atom Modifiers                             I   N=           5
           0           0           0           0           0
Force Field                                I                0
Int Atom Modified Types                    I   N=           5
           0           0           0           0           0
Link Atoms                                 I   N=           5
           0           0           0           0           0
Atom Modified MM Charges                   R   N=           5
  0.00000000E+00  0.00000000E+00  0.00000000E+00  0.00000000E+00  0.00000000E+00
Link Distances                             R   N=          20
  0.00000000E+00  0.00000000E+00  0.00000000E+00  0.00000000E+00  0.00000000E+00
  0.00000000E+00  0.00000000E+00  0.00000000E+00  0.00000000E+00  0.00000000E+00
  0.00000000E+00  0.00000000E+00  0.00000000E+00  0.00000000E+00  0.00000000E+00
  0.00000000E+00  0.00000000E+00  0.00000000E+00  0.00000000E+00  0.00000000E+00
Cartesian Gradient                         R   N=          15
  1.95147980E-07 -3.24434958E-06 -1.48007493E-31  9.96341795E-06 -3.79029830E-06
  6.11489528E-31  3.03846238E-06 -5.81817305E-07  1.47057164E-31 -1.06532106E-05
  4.57522940E-06 -5.65000890E-31 -2.54381775E-06  3.04123578E-06 -4.55384631E-32
Cartesian Force Constants                  R   N=         120
  1.42742453E+00 -1.25405516E-01  8.13193478E-01 -9.86076132E-31  1.07852077E-32
  1.91018415E-01 -2.51236556E-01 -2.00762575E-01  2.32652337E-31  8.42356279E-01
 -8.73777279E-02 -3.10302683E-01 -8.85927774E-33 -5.25236151E-02  4.87287263E-01
  2.21867130E-31 -4.93038066E-32 -4.71345133E-02 -5.91645679E-31  1.32503980E-31
  1.67947944E-02 -1.00674278E+00  1.73255420E-01  6.28623534E-31 -6.95425297E-02
 -1.27329936E-02  3.08148791E-33  1.10624943E+00  1.69812691E-01 -1.48329477E-01
  3.50519250E-32 -4.34477536E-02  2.69379374E-02 -2.21481944E-33 -1.64668003E-01
  1.23092735E-01  7.39557099E-31  0.00000000E+00 -7.08284152E-02  4.00593428E-32
  7.31853379E-33  1.50636769E-02 -7.88860905E-31 -3.69778549E-32  2.73928896E-02
 -3.59910465E-02  3.80141746E-02 -4.04445288E-32 -5.29667090E-01  1.79320075E-01
  3.70934107E-31  2.91636020E-04 -9.05180780E-03  1.54074396E-33  5.61096939E-01
 -6.88481204E-02  7.94350026E-04 -1.75741107E-32  2.88599664E-01 -1.74824773E-01
 -8.45001763E-32 -5.51215774E-03 -6.65326401E-03  2.55185718E-33 -2.11447081E-01
  1.78133616E-01 -2.77333912E-32  3.85185989E-32 -5.90784099E-03  3.20474743E-31
 -1.23259516E-31 -3.24696052E-03  1.26148411E-32 -6.16297582E-33  4.38901973E-03
 -3.20474743E-31  9.24446373E-32  4.46906724E-03 -1.33454146E-01  1.14898496E-01
  1.26341004E-31  8.08989660E-03 -2.66857384E-02 -1.15555797E-32 -3.02557495E-02
  4.73548736E-02  3.85185989E-33  4.26956099E-03 -2.79230420E-03  8.70279594E-33
  1.51350438E-01  1.11818674E-01 -3.55355667E-01  1.54074396E-33  8.13427983E-03
 -2.90977436E-02 -2.21481944E-33  9.65773394E-03  4.95206881E-03 -1.34815096E-33
  3.16463962E-03  2.55007172E-03  4.50186125E-33 -1.32775327E-01  3.76951270E-01
  1.35585468E-31 -7.70371978E-33 -6.71476452E-02 -5.77778983E-33 -1.54074396E-33
  1.85230024E-02 -6.16297582E-33  6.16297582E-33  2.39828289E-02 -5.77778983E-34
 -4.52593537E-33  2.96714537E-04 -1.23259516E-31 -6.16297582E-33  2.43450993E-02
Dipole Moment                              R   N=           3
 -9.93995192E-01  6.25946053E-01 -9.86076132E-32
Dipole Derivatives                         R   N=          45
  1.08054824E+00  1.97305442E-01  9.86076132E-32  5.56605591E-01  8.21720599E-01
  7.39557099E-32  2.46519033E-32  3.08148791E-33  3.02518359E-01 -5.37547595E-01
 -2.47853392E-01  7.39557099E-32 -6.31896019E-01 -4.02891129E-01 -1.47911420E-31
  1.23259516E-31 -2.24948618E-31 -3.89239589E-01 -5.69258053E-01 -8.65765436E-02
  2.46519033E-32 -2.75989436E-03 -4.52642651E-01  0.00000000E+00 -2.46519033E-32
 -4.31408308E-32 -2.66346796E-01  4.26190059E-02  1.37749255E-01 -1.01689101E-31
  1.71727188E-01  1.08854183E-01  8.01186857E-32 -1.35585468E-31  2.03378202E-31
  2.97158432E-01 -1.63615960E-02 -6.24761084E-04 -1.07852077E-32 -9.36768650E-02
 -7.50410011E-02 -3.08148791E-33 -1.69481835E-32  2.85037632E-32  5.59095940E-02
Polarizability                             R   N=           6
  1.68995871E+01  7.83762396E-02  7.16147620E+00  2.36658272E-30  0.00000000E+00
  2.46566057E+00
HyperPolarizability                        R   N=          10
 -1.66119993E+00  1.38660001E+01  4.98290254E+00  1.11068796E+01  1.97215226E-31
  8.13512809E-31  4.31408308E-31 -3.89533390E+00 -6.93354968E-01  0.00000000E+00
