[Molden Format]
[FR-COORD] # Coordinates in bohr
  C    +0.031316    +1.063284    +0.122473 
  C    -2.451707    -0.473962    -0.002544 
  H    -4.066320    +0.782490    +0.148740 
  H    -2.575757    -1.491863    -1.779381 
  H    -2.543603    -1.833015    +1.533622 
  H    +0.055428    +2.449952    -1.409752 
  H    +0.095830    +2.114184    +1.909017 
  O    +2.248004    -0.464458    -0.193484 
  H    +2.176172    -1.667405    +1.240500 
[FREQ] # Frequencies in cm^-1
  236.3689
  373.2930
  456.1006
  935.6466
 1067.0547
 1247.8125
 1273.7001
 1350.1858
 1513.1090
 1660.0049
 1723.2011
 1745.2843
 1814.6552
 1826.3459
 1840.6975
 3559.8644
 3568.0159
 3683.0366
 3749.4702
 3758.6167
 4224.4877
[FR-NORM-COORD] # Displacements in bohr
vibration  1
      +0.005     -0.015     +0.216
      +0.009     -0.003     -0.003
      -0.008     +0.051     -0.549
      +0.294     -0.380     +0.195
      -0.274     +0.332     +0.276
      -0.010     +0.069     +0.128
      +0.016     -0.090     +0.112
      -0.011     +0.050     -0.186
      -0.024     -0.119     -0.158
vibration  2
      +0.005     -0.098     +0.143
      -0.096     +0.046     -0.074
      +0.001     +0.059     -0.085
      +0.014     +0.022     -0.029
      -0.122     +0.012     -0.029
      -0.010     +0.018     +0.083
      +0.024     -0.081     +0.068
      -0.034     -0.106     -0.184
      +0.545     +0.573     +0.484
vibration  3
      -0.030     -0.402     -0.081
      -0.429     +0.088     +0.031
      +0.034     +0.230     +0.031
      -0.302     +0.031     +0.018
      -0.269     +0.060     +0.031
      -0.033     -0.112     -0.020
      -0.050     -0.097     -0.033
      +0.525     +0.268     +0.066
      +0.110     -0.095     -0.119
vibration  4
      -0.002     +0.048     -0.259
      -0.015     +0.001     -0.121
      -0.010     -0.030     +0.166
      -0.317     -0.264     +0.139
      +0.317     +0.220     +0.181
      +0.178     +0.384     +0.264
      -0.158     -0.423     +0.187
      +0.033     -0.034     +0.072
      -0.084     +0.080     +0.088
vibration  5
      +0.107     +0.365     +0.035
      -0.511     -0.047     +0.022
      -0.441     -0.372     -0.045
      +0.105     -0.064     +0.011
      +0.054     -0.098     -0.048
      +0.123     +0.110     +0.009
      +0.177     +0.106     +0.009
      +0.342     -0.188     -0.036
      +0.018     -0.031     +0.011
vibration  6
      -0.203     -0.297     +0.154
      +0.031     +0.363     -0.114
      -0.222     -0.208     +0.071
      +0.150     -0.076     +0.066
      +0.455     +0.163     +0.040
      +0.243     -0.252     -0.094
      -0.198     +0.086     -0.055
      -0.042     +0.053     -0.010
      +0.335     -0.151     -0.125
vibration  7
      -0.405     -0.127     -0.233
      +0.127     +0.288     +0.186
      -0.092     -0.070     -0.094
      +0.384     +0.192     -0.026
      +0.078     -0.043     -0.063
      -0.425     +0.136     +0.093
      +0.027     -0.253     +0.042
      +0.287     -0.145     +0.031
      -0.154     +0.057     +0.088
vibration  8
      +0.320     -0.355     -0.234
      -0.113     +0.069     +0.133
      -0.160     -0.129     -0.076
      +0.214     +0.063     -0.004
      -0.002     -0.106     -0.069
      +0.230     +0.005     +0.032
      +0.434     -0.268     +0.014
      -0.334     +0.336     +0.112
      -0.097     +0.086     +0.008
vibration  9
      +0.066     -0.091     +0.227
      -0.020     +0.063     -0.321
      -0.033     -0.040     +0.116
      -0.207     -0.208     +0.044
      +0.240     +0.183     +0.063
      -0.538     -0.136     -0.032
      +0.526     +0.082     -0.015
      +0.004     +0.035     +0.023
      -0.161     +0.075     +0.055
vibration  10
      -0.497     +0.127     -0.059
      +0.005     -0.184     -0.032
      +0.209     +0.206     +0.013
      +0.049     +0.096     -0.098
      +0.076     +0.085     +0.114
      +0.321     +0.099     +0.035
      +0.586     +0.010     -0.026
      +0.049     -0.039     +0.088
      +0.263     -0.144     -0.074
vibration  11
      -0.025     +0.072     -0.149
      +0.321     +0.149     +0.039
      -0.203     -0.322     -0.111
      -0.396     -0.061     +0.103
      -0.334     -0.086     -0.130
      -0.194     +0.118     +0.030
      +0.118     -0.062     +0.000
      -0.115     -0.028     +0.158
      +0.443     -0.235     -0.140
vibration  12
      +0.312     +0.078     -0.160
      -0.289     -0.113     +0.007
      +0.131     +0.246     -0.010
      +0.262     +0.040     -0.066
      +0.279     +0.000     +0.053
      -0.407     +0.171     +0.067
      -0.117     -0.008     -0.018
      -0.168     -0.023     +0.163
      +0.441     -0.237     -0.148
vibration  13
      +0.049     +0.257     +0.013
      +0.001     -0.114     +0.006
      -0.059     -0.094     -0.064
      -0.061     +0.291     -0.177
      +0.006     +0.218     +0.220
      -0.057     -0.396     -0.420
      -0.027     -0.486     +0.329
      -0.007     -0.000     +0.016
      +0.051     -0.025     -0.016
vibration  14
      +0.010     +0.028     -0.061
      +0.019     +0.016     -0.192
      -0.012     -0.107     +0.699
      +0.403     -0.156     +0.014
      -0.463     +0.194     +0.091
      -0.018     +0.010     -0.023
      -0.005     -0.055     +0.015
      -0.017     -0.002     +0.025
      +0.063     -0.032     -0.020
vibration  15
      -0.082     +0.191     +0.010
      -0.061     +0.150     +0.012
      +0.151     +0.250     +0.039
      +0.088     -0.478     +0.292
      +0.058     -0.400     -0.381
      +0.033     -0.209     -0.240
      +0.055     -0.265     +0.188
      +0.018     -0.013     +0.009
      +0.039     -0.024     -0.012
vibration  16
      +0.013     +0.228     +0.088
      +0.009     -0.004     -0.004
      -0.042     +0.038     +0.004
      -0.006     -0.017     -0.024
      -0.004     -0.031     +0.031
      -0.002     -0.351     +0.394
      -0.023     -0.405     -0.701
      -0.002     +0.000     +0.002
      +0.006     -0.006     -0.003
vibration  17
      -0.009     -0.023     -0.007
      +0.152     +0.099     -0.001
      -0.434     +0.343     +0.040
      -0.030     -0.270     -0.478
      -0.023     -0.391     +0.445
      -0.002     +0.026     -0.030
      -0.000     +0.028     +0.052
      -0.001     +0.000     -0.000
      +0.000     +0.000     +0.001
vibration  18
      -0.003     +0.085     -0.303
      +0.003     -0.008     +0.028
      -0.010     +0.009     +0.003
      +0.000     -0.027     -0.047
      -0.003     +0.038     -0.046
      -0.007     -0.532     +0.592
      +0.018     +0.256     +0.440
      -0.001     -0.004     +0.006
      +0.010     +0.007     -0.015
vibration  19
      +0.000     -0.008     +0.021
      +0.110     -0.187     +0.227
      -0.391     +0.306     +0.041
      -0.015     -0.153     -0.262
      +0.031     +0.491     -0.559
      +0.005     +0.044     -0.046
      -0.004     -0.017     -0.030
      -0.001     +0.001     -0.001
      -0.002     -0.001     +0.002
vibration  20
      -0.000     -0.001     -0.013
      +0.126     -0.191     -0.217
      -0.473     +0.372     +0.042
      +0.042     +0.356     +0.628
      -0.002     -0.072     +0.076
      -0.002     -0.014     +0.018
      +0.005     +0.021     +0.031
      -0.001     +0.000     +0.000
      +0.000     +0.000     -0.001
vibration  21
      +0.013     -0.004     -0.011
      +0.000     -0.001     +0.000
      +0.001     -0.001     +0.000
      +0.000     +0.001     +0.001
      -0.001     -0.001     +0.000
      -0.001     -0.008     +0.011
      +0.002     +0.002     +0.008
      -0.005     +0.163     -0.181
      -0.027     -0.627     +0.739
