[Molden Format]
[FR-COORD] # Coordinates in bohr
  C    +2.576328    -0.299925    -0.000556 
  C    -0.004048    +1.056606    -0.001325 
  O    -1.950639    -0.841241    +0.001942 
  H    +4.096374    +1.078217    -0.002395 
  H    +2.760011    -1.481917    +1.666264 
  H    +2.759167    -1.485447    -1.664958 
  H    -0.144869    +2.276734    +1.667896 
  H    -0.146179    +2.272329    -1.673635 
  H    -3.664376    +0.218413    +0.000115 
  H    -5.329794    +1.463087    -0.001725 
[FREQ] # Frequencies in cm^-1
 -2522.3668
  151.4660
  226.5650
  348.4076
  483.4374
  887.6574
  958.4976
 1076.2395
 1237.7089
 1342.4414
 1344.0556
 1506.4185
 1564.7145
 1697.0825
 1753.3841
 1819.6194
 1823.4977
 1844.2681
 1975.4612
 3546.9934
 3574.1004
 3659.0735
 3758.7184
 3760.7731
[FR-NORM-COORD] # Displacements in bohr
vibration  1
      -0.000     -0.008     +0.000
      +0.019     +0.029     -0.000
      +0.024     -0.030     +0.000
      -0.006     +0.003     +0.000
      +0.003     -0.000     +0.002
      +0.003     -0.000     -0.002
      -0.006     -0.008     +0.003
      -0.006     -0.008     -0.003
      -0.653     +0.427     -0.001
      +0.505     -0.364     +0.001
vibration  2
      +0.000     +0.000     +0.216
      -0.000     -0.000     -0.211
      -0.000     -0.001     -0.303
      -0.000     +0.000     +0.014
      -0.033     +0.095     +0.134
      +0.033     -0.095     +0.134
      -0.048     +0.039     -0.096
      +0.048     -0.040     -0.096
      -0.000     +0.001     +0.295
      +0.000     +0.001     +0.805
vibration  3
      +0.000     -0.000     +0.026
      -0.000     -0.000     -0.258
      +0.000     +0.000     +0.210
      +0.000     +0.001     +0.558
      -0.270     -0.367     -0.222
      +0.270     +0.367     -0.223
      +0.004     +0.089     -0.139
      -0.004     -0.089     -0.139
      -0.000     +0.000     +0.055
      -0.000     -0.000     +0.072
vibration  4
      -0.196     -0.203     +0.000
      +0.060     +0.285     -0.000
      +0.276     +0.165     -0.001
      +0.055     -0.183     +0.000
      -0.158     -0.078     -0.002
      -0.158     -0.078     +0.002
      +0.036     +0.079     +0.005
      +0.036     +0.079     -0.005
      -0.018     -0.103     +0.000
      -0.426     -0.653     +0.001
vibration  5
      +0.398     +0.045     -0.000
      +0.119     -0.287     +0.000
      -0.479     +0.231     -0.000
      -0.012     +0.156     -0.000
      +0.236     +0.037     +0.004
      +0.236     +0.037     -0.004
      +0.078     -0.070     -0.005
      +0.078     -0.070     +0.005
      -0.078     +0.146     -0.000
      -0.412     -0.321     +0.001
vibration  6
      +0.000     +0.000     +0.016
      +0.000     +0.000     +0.093
      -0.000     +0.000     +0.095
      +0.000     -0.000     -0.048
      +0.091     -0.058     -0.047
      -0.091     +0.058     -0.047
      -0.051     +0.115     -0.060
      +0.051     -0.116     -0.059
      -0.000     -0.002     -0.875
      +0.000     +0.001     +0.383
vibration  7
      +0.000     +0.000     +0.139
      +0.000     +0.000     +0.228
      +0.000     -0.000     -0.131
      +0.000     -0.000     -0.168
      +0.339     -0.226     -0.158
      -0.339     +0.225     -0.159
      -0.238     +0.342     -0.207
      +0.238     -0.342     -0.206
      +0.000     +0.001     +0.246
      -0.000     -0.000     -0.092
vibration  8
      +0.487     +0.026     -0.000
      -0.094     +0.354     -0.000
      -0.290     -0.241     +0.000
      +0.478     -0.355     +0.000
      -0.106     -0.083     -0.030
      -0.106     -0.083     +0.030
      -0.169     +0.093     -0.001
      -0.169     +0.093     +0.000
      -0.098     -0.073     +0.000
      -0.032     +0.058     -0.000
vibration  9
      -0.196     +0.434     -0.001
      +0.455     -0.250     +0.000
      -0.149     -0.160     +0.000
      +0.189     -0.154     +0.000
      -0.370     +0.060     -0.021
      -0.370     +0.060     +0.021
      +0.111     -0.090     -0.002
      +0.111     -0.090     +0.002
      +0.105     +0.239     -0.000
      -0.075     -0.023     +0.000
vibration  10
      +0.002     +0.001     -0.243
      -0.004     -0.005     +0.445
      +0.004     +0.005     -0.184
      +0.002     -0.002     +0.140
      -0.231     +0.161     +0.070
      +0.228     -0.162     +0.070
      +0.296     +0.391     -0.126
      -0.306     -0.395     -0.125
      +0.003     +0.004     +0.019
      +0.000     -0.001     -0.010
vibration  11
      +0.135     +0.072     +0.003
      -0.321     -0.398     -0.006
      +0.297     +0.367     +0.002
      +0.179     -0.133     -0.002
      -0.095     -0.043     -0.027
      -0.101     -0.038     +0.025
      -0.374     -0.152     +0.002
      -0.366     -0.141     +0.002
      +0.191     +0.242     -0.001
      +0.024     -0.073     +0.000
vibration  12
      +0.000     +0.000     +0.321
      -0.000     -0.000     -0.174
      -0.000     -0.000     -0.074
      +0.000     -0.000     -0.112
      +0.238     -0.178     -0.053
      -0.238     +0.178     -0.053
      +0.577     -0.017     +0.009
      -0.577     +0.017     +0.009
      -0.000     -0.000     -0.010
      -0.000     +0.000     -0.002
vibration  13
      -0.096     -0.188     +0.000
      +0.256     +0.271     -0.001
      -0.035     -0.292     +0.001
      -0.172     +0.102     -0.000
      +0.125     +0.032     +0.047
      +0.125     +0.032     -0.047
      -0.315     +0.059     -0.015
      -0.315     +0.059     +0.015
      +0.295     +0.579     -0.001
      -0.155     +0.010     +0.000
vibration  14
      -0.244     +0.176     -0.000
      -0.316     +0.011     +0.000
      +0.049     -0.112     +0.000
      +0.279     -0.332     +0.000
      +0.332     -0.100     -0.150
      +0.332     -0.100     +0.150
      +0.285     +0.030     +0.012
      +0.285     +0.030     -0.013
      +0.225     +0.322     -0.001
      -0.001     -0.050     +0.000
vibration  15
      +0.363     -0.111     +0.000
      -0.413     +0.041     +0.000
      +0.045     -0.125     +0.000
      -0.174     +0.278     -0.000
      -0.316     -0.011     +0.065
      -0.316     -0.011     -0.065
      +0.288     +0.100     -0.026
      +0.288     +0.100     +0.026
      +0.230     +0.328     -0.001
      -0.002     -0.045     +0.000
vibration  16
      -0.000     -0.000     -0.195
      +0.000     -0.000     -0.046
      +0.000     -0.000     +0.004
      +0.000     +0.001     +0.715
      +0.422     +0.209     +0.051
      -0.422     -0.209     +0.052
      +0.012     -0.020     -0.002
      -0.012     +0.020     -0.002
      +0.000     +0.000     +0.001
      -0.000     +0.000     +0.000
vibration  17
      -0.011     -0.166     +0.000
      -0.114     +0.137     -0.000
      +0.032     -0.010     +0.000
      +0.138     -0.194     +0.000
      +0.025     +0.422     +0.326
      +0.024     +0.421     -0.327
      +0.085     -0.294     +0.246
      +0.085     -0.294     -0.246
      -0.007     +0.049     -0.000
      -0.045     +0.030     -0.000
vibration  18
      -0.057     -0.092     +0.000
      -0.003     -0.262     +0.000
      -0.040     +0.033     -0.000
      +0.122     -0.178     +0.000
      +0.039     +0.293     +0.219
      +0.039     +0.293     -0.220
      -0.015     +0.405     -0.347
      -0.015     +0.406     +0.346
      +0.081     -0.044     +0.000
      +0.114     -0.086     +0.000
vibration  19
      +0.003     -0.013     +0.000
      +0.076     +0.122     -0.000
      -0.327     +0.102     -0.000
      -0.027     +0.028     -0.000
      +0.004     -0.015     -0.009
      +0.004     -0.015     +0.009
      -0.026     -0.075     +0.083
      -0.026     -0.076     -0.083
      +0.540     -0.199     +0.000
      +0.564     -0.429     +0.001
vibration  20
      -0.002     -0.008     +0.000
      -0.033     +0.237     -0.000
      -0.002     +0.001     -0.000
      +0.024     +0.026     -0.000
      +0.005     -0.011     +0.011
      +0.005     -0.011     -0.011
      +0.043     -0.398     -0.557
      +0.044     -0.396     +0.558
      +0.011     -0.006     +0.000
      -0.000     -0.001     +0.000
vibration  21
      +0.162     -0.082     +0.000
      -0.010     +0.014     -0.000
      -0.001     -0.000     +0.000
      -0.424     -0.388     +0.001
      -0.047     +0.324     -0.459
      -0.047     +0.325     +0.459
      -0.001     -0.013     -0.021
      -0.001     -0.013     +0.021
      +0.000     -0.000     +0.000
      +0.000     -0.000     +0.000
vibration  22
      -0.000     -0.000     -0.021
      +0.000     +0.000     +0.317
      +0.000     +0.000     -0.000
      +0.000     -0.000     -0.002
      -0.001     -0.022     +0.033
      +0.001     +0.022     +0.033
      +0.047     -0.393     -0.540
      -0.048     +0.391     -0.541
      -0.000     -0.000     -0.003
      -0.000     +0.000     -0.000
vibration  23
      +0.145     +0.281     -0.001
      -0.001     +0.004     -0.000
      -0.002     +0.000     +0.000
      -0.568     -0.519     +0.001
      +0.036     -0.223     +0.322
      +0.035     -0.223     -0.321
      +0.003     -0.009     -0.008
      +0.003     -0.009     +0.009
      +0.001     -0.002     +0.000
      +0.000     -0.000     +0.000
vibration  24
      -0.000     -0.001     -0.316
      -0.000     -0.000     -0.017
      +0.000     +0.000     +0.000
      +0.001     +0.001     -0.005
      +0.057     -0.386     +0.544
      -0.056     +0.388     +0.544
      -0.007     +0.024     +0.032
      +0.007     -0.024     +0.032
      +0.000     +0.000     +0.000
      +0.000     +0.000     +0.000
