[Molden Format]
[FR-COORD] # Coordinates in bohr
  N    +0.000000    +0.000009    -0.206429 
  H    -1.535905    -0.885342    +0.478392 
  H    +1.534665    -0.887490    +0.478393 
  H    +0.001240    +1.772767    +0.478418 
[FREQ] # Frequencies in cm^-1
  959.2897
 1290.8230
 1290.8325
 2227.3272
 2248.9666
 2249.0079
[FR-NORM-COORD] # Displacements in bohr
vibration  1
      +0.000     +0.000     -0.524
      +0.150     +0.087     +0.460
      -0.150     +0.087     +0.460
      -0.000     -0.174     +0.460
vibration  2
      +0.315     +0.000     +0.000
      -0.052     +0.387     +0.185
      -0.054     -0.388     -0.185
      -0.725     +0.001     -0.000
vibration  3
      -0.000     +0.315     +0.000
      +0.388     -0.502     +0.107
      -0.388     -0.500     +0.107
      +0.001     +0.171     -0.214
vibration  4
      +0.000     +0.000     -0.165
      -0.477     -0.275     +0.145
      +0.477     -0.276     +0.145
      +0.000     +0.550     +0.145
vibration  5
      -0.387     -0.000     -0.000
      +0.523     +0.315     -0.228
      +0.522     -0.316     +0.228
      -0.024     +0.001     +0.000
vibration  6
      +0.000     -0.387     -0.000
      +0.315     +0.158     -0.131
      -0.315     +0.159     -0.132
      +0.001     +0.705     +0.263
