[Molden Format]
[FR-COORD] # Coordinates in bohr
  N    +0.000000    -0.000000    +0.000000 
  H    +0.000000    +1.853361    +0.000000 
  H    +1.605058    -0.926681    -0.000000 
  H    -1.605058    -0.926681    +0.000000 
[FREQ] # Frequencies in cm^-1
 -795.6138
 1258.6130
 1258.6130
 2206.7863
 2320.7824
 2320.7824
[FR-NORM-COORD] # Displacements in bohr
vibration  1
      +0.000     +0.000     -0.549
      +0.000     +0.000     +0.483
      +0.000     -0.000     +0.483
      -0.000     +0.000     +0.483
vibration  2
      +0.000     +0.360     +0.000
      -0.000     +0.119     +0.000
      -0.377     -0.535     -0.000
      +0.377     -0.535     -0.000
vibration  3
      -0.360     +0.000     +0.000
      +0.752     +0.000     +0.000
      +0.099     +0.377     +0.000
      +0.099     -0.377     +0.000
vibration  4
      +0.000     +0.000     -0.000
      +0.000     -0.577     +0.000
      -0.500     +0.289     +0.000
      +0.500     +0.289     +0.000
vibration  5
      +0.000     +0.414     -0.000
      +0.000     -0.743     -0.000
      +0.328     -0.174     -0.000
      -0.328     -0.174     -0.000
vibration  6
      -0.414     +0.000     +0.000
      -0.015     -0.000     -0.000
      +0.554     -0.328     -0.000
      +0.554     +0.328     -0.000
