[Molden Format]
[FR-COORD] # Coordinates in bohr
  N    +0.000000    +0.000005    -0.121608 
  H    -1.535905    -0.885346    +0.563214 
  H    +1.534665    -0.887493    +0.563214 
  H    +0.001240    +1.772763    +0.563239 
[FREQ] # Frequencies in cm^-1
 1258.1700
 1773.2601
 1773.2736
 3061.0647
 3061.1180
 3127.8572
[FR-NORM-COORD] # Displacements in bohr
vibration  1
      +0.000     +0.000     -0.406
      +0.135     +0.078     +0.504
      -0.135     +0.078     +0.504
      -0.000     -0.156     +0.504
vibration  2
      +0.257     +0.000     +0.000
      -0.107     +0.366     +0.214
      -0.108     -0.367     -0.214
      -0.742     +0.001     -0.000
vibration  3
      -0.000     +0.257     +0.000
      +0.366     -0.531     +0.123
      -0.367     -0.530     +0.124
      +0.001     +0.104     -0.247
vibration  4
      -0.277     -0.000     +0.000
      +0.541     +0.340     -0.230
      +0.540     -0.341     +0.230
      -0.049     +0.001     +0.000
vibration  5
      -0.000     +0.277     -0.000
      -0.340     -0.147     +0.133
      +0.341     -0.148     +0.133
      -0.001     -0.736     -0.265
vibration  6
      +0.000     +0.000     +0.114
      +0.481     +0.278     -0.141
      -0.481     +0.278     -0.141
      -0.000     -0.556     -0.142
