-- nh3 --                                                               
Freq      RPM6                                                        ZDO                 
Number of atoms                            I                4
Info1-9                                    I   N=           9
          12          10        1001           0           0         100
           6           8         302
Charge                                     I                0
Multiplicity                               I                1
Number of electrons                        I                8
Number of alpha electrons                  I                4
Number of beta electrons                   I                4
Number of basis functions                  I                7
Number of independent functions            I                7
Number of point charges in /Mol/           I                0
Number of translation vectors              I                0
Atomic numbers                             I   N=           4
           7           1           1           1
Nuclear charges                            R   N=           4
  5.00000000E+00  1.00000000E+00  1.00000000E+00  1.00000000E+00
Current cartesian coordinates              R   N=          12
  0.00000000E+00  0.00000000E+00  0.00000000E+00  5.36279900E-63  1.85336108E+00
  8.75811540E-47  1.60505777E+00 -9.26680538E-01 -4.93038066E-32 -1.60505777E+00
 -9.26680538E-01  0.00000000E+00
Number of symbols in /Mol/                 I                0
Force Field                                I                0
Atom Types                                 C   N=           4
                                                
Int Atom Types                             I   N=           4
           0           0           0           0
MM charges                                 R   N=           4
  0.00000000E+00  0.00000000E+00  0.00000000E+00  0.00000000E+00
Integer atomic weights                     I   N=           4
          14           1           1           1
Real atomic weights                        R   N=           4
  1.40030740E+01  1.00782504E+00  1.00782504E+00  1.00782504E+00
Atom fragment info                         I   N=           4
           0           0           0           0
Atom residue num                           I   N=           4
           0           0           0           0
Nuclear spins                              I   N=           4
           2           1           1           1
Nuclear ZEff                               R   N=           4
 -4.90000000E+00 -1.00000000E+00 -1.00000000E+00 -1.00000000E+00
Nuclear QMom                               R   N=           4
  2.04400000E+00  0.00000000E+00  0.00000000E+00  0.00000000E+00
Nuclear GFac                               R   N=           4
  4.03761000E-01  2.79284600E+00  2.79284600E+00  2.79284600E+00
MicOpt                                     I   N=           4
          -1          -1          -1          -1
Number of residues                         I                0
Number of secondary structures             I                0
Number of contracted shells                I                4
Number of primitive shells                 I               24
Pure/Cartesian d shells                    I                0
Pure/Cartesian f shells                    I                0
Highest angular momentum                   I                1
Largest degree of contraction              I                6
Shell types                                I   N=           4
          -1           0           0           0
Number of primitives per shell             I   N=           4
           6           6           6           6
Shell to atom map                          I   N=           4
           1           2           3           4
Primitive exponents                        R   N=          24
  1.54719623E+01  4.45513742E+00  1.75231709E+00  8.00868468E-01  3.98565014E-01
  2.04687870E-01  4.39461478E+00  1.26542531E+00  4.97723458E-01  2.27476537E-01
  1.13207340E-01  5.81389949E-02  4.39461478E+00  1.26542531E+00  4.97723458E-01
  2.27476537E-01  1.13207340E-01  5.81389949E-02  4.39461478E+00  1.26542531E+00
  4.97723458E-01  2.27476537E-01  1.13207340E-01  5.81389949E-02
Contraction coefficients                   R   N=          24
 -9.73739553E-03 -7.26587678E-02 -1.71615520E-01  1.28977624E-01  7.28861451E-01
  3.01331742E-01 -9.73739553E-03 -7.26587678E-02 -1.71615520E-01  1.28977624E-01
  7.28861451E-01  3.01331742E-01 -9.73739553E-03 -7.26587678E-02 -1.71615520E-01
  1.28977624E-01  7.28861451E-01  3.01331742E-01 -9.73739553E-03 -7.26587678E-02
 -1.71615520E-01  1.28977624E-01  7.28861451E-01  3.01331742E-01
P(S=P) Contraction coefficients            R   N=          24
 -8.10494336E-03 -1.71547892E-02  7.36978576E-02  3.96514999E-01  4.97808488E-01
  1.17482582E-01  0.00000000E+00  0.00000000E+00  0.00000000E+00  0.00000000E+00
  0.00000000E+00  0.00000000E+00  0.00000000E+00  0.00000000E+00  0.00000000E+00
  0.00000000E+00  0.00000000E+00  0.00000000E+00  0.00000000E+00  0.00000000E+00
  0.00000000E+00  0.00000000E+00  0.00000000E+00  0.00000000E+00
Coordinates of each shell                  R   N=          12
  0.00000000E+00  0.00000000E+00  0.00000000E+00  0.00000000E+00  1.85336108E+00
  4.37905770E-47  1.60505777E+00 -9.26680538E-01 -2.46519033E-32 -1.60505777E+00
 -9.26680538E-01  0.00000000E+00
Constraint Structure                       R   N=          12
  0.00000000E+00  0.00000000E+00  0.00000000E+00  0.00000000E+00  1.85336108E+00
  4.37905770E-47  1.60505777E+00 -9.26680538E-01 -2.46519033E-32 -1.60505777E+00
 -9.26680538E-01  0.00000000E+00
Num ILSW                                   I              100
ILSW                                       I   N=         100
           0           0           0           0           2           0
           0           0           3           0           0          -1
           0           0           0           0           0           0
           0           0           1           0           1           0
           1           0           0           0           0           0
           0           0      100000           0          -1           0
           0           0           0           0           0           0
           0           0           0          40           0           0
           0           0           1           0           0           0
           0           0           4          40           0           0
           0           0           0           0           0           0
           0           0           0           0           0           0
           0           0           0           0           0           0
           0           0           0           0           0           0
           0           0           0           0           0           0
           0           0           0           0           0           0
           0           0           0           0
Num RLSW                                   I               40
RLSW                                       R   N=          40
  1.00000000E+00  1.00000000E+00  1.00000000E+00  1.00000000E+00  1.00000000E+00
  0.00000000E+00  0.00000000E+00  1.00000000E+00  0.00000000E+00  0.00000000E+00
  0.00000000E+00  0.00000000E+00  1.00000000E+00  0.00000000E+00  0.00000000E+00
  0.00000000E+00  0.00000000E+00  1.00000000E+00  0.00000000E+00  0.00000000E+00
  0.00000000E+00  0.00000000E+00  1.00000000E+00  0.00000000E+00  0.00000000E+00
  0.00000000E+00  0.00000000E+00  1.00000000E+00  0.00000000E+00  0.00000000E+00
  0.00000000E+00  0.00000000E+00  1.00000000E+00  0.00000000E+00  0.00000000E+00
  0.00000000E+00  0.00000000E+00  0.00000000E+00  1.00000000E+00  1.00000000E+00
MxBond                                     I                3
NBond                                      I   N=           4
           3           1           1           1
IBond                                      I   N=          12
           2           3           4           1           0           0
           1           0           0           1           0           0
RBond                                      R   N=          12
  1.00000000E+00  1.00000000E+00  1.00000000E+00  1.00000000E+00  0.00000000E+00
  0.00000000E+00  1.00000000E+00  0.00000000E+00  0.00000000E+00  1.00000000E+00
  0.00000000E+00  0.00000000E+00
Virial Ratio                               R      1.000936048054580E+00
SCF Energy                                 R      4.443675090525900E-03
Total Energy                               R      4.443675090525900E-03
RMS Force                                  R      1.023616166117289E-06
RMS Density                                R      7.665918473937774E-14
External E-field                           R   N=          35
  0.00000000E+00  0.00000000E+00  0.00000000E+00  0.00000000E+00  0.00000000E+00
  0.00000000E+00  0.00000000E+00  0.00000000E+00  0.00000000E+00  0.00000000E+00
  0.00000000E+00  0.00000000E+00  0.00000000E+00  0.00000000E+00  0.00000000E+00
  0.00000000E+00  0.00000000E+00  0.00000000E+00  0.00000000E+00  0.00000000E+00
  0.00000000E+00  0.00000000E+00  0.00000000E+00  0.00000000E+00  0.00000000E+00
  0.00000000E+00  0.00000000E+00  0.00000000E+00  0.00000000E+00  0.00000000E+00
  0.00000000E+00  0.00000000E+00  0.00000000E+00  0.00000000E+00  0.00000000E+00
IOpCl                                      I                0
IROHF                                      I                0
Alpha Orbital Energies                     R   N=           7
 -1.13831755E+00 -6.10731650E-01 -6.10731650E-01 -3.36004244E-01  1.52540551E-01
  2.91001128E-01  2.91001128E-01
Alpha MO coefficients                      R   N=          49
  8.45020716E-01  6.85757874E-17 -2.15864653E-16 -1.84907225E-17  3.08728570E-01
  3.08728570E-01  3.08728570E-01  2.48634663E-16 -2.20641304E-01  7.30477127E-01
  2.91982381E-17  5.05170765E-01 -3.84729865E-01 -1.20440900E-01 -3.28865624E-16
  7.30477127E-01  2.20641304E-01  6.75873274E-18  1.52587305E-01  3.61197063E-01
 -5.13784369E-01  8.35836375E-17 -1.64153050E-17  5.61932849E-17  1.00000000E+00
 -1.39031422E-16 -1.31263371E-16 -9.19109956E-18  5.34733570E-01  1.95946503E-15
  2.49861167E-16  3.83771177E-18 -4.87872938E-01 -4.87872938E-01 -4.87872938E-01
  4.45986564E-16 -2.77071947E-01  5.83910711E-01 -4.18281178E-17 -5.62890080E-01
  5.12758199E-01  5.01318804E-02 -9.67270968E-16  5.83910711E-01  2.77071947E-01
  2.19059378E-17 -2.67097430E-01 -3.53928394E-01  6.21025824E-01
Total SCF Density                          R   N=          28
  1.42812002E+00 -4.74279863E-16  1.16455884E+00 -1.46699018E-16  6.65700134E-16
  1.16455884E+00  1.35917188E-16 -3.58410853E-17  1.58026371E-16  2.00000000E+00
  5.21764075E-01 -2.64583223E-13  8.05365503E-01 -2.57917286E-16  7.47587436E-01
  5.21764075E-01  6.97466985E-01 -4.02682751E-01 -2.91528371E-16 -8.78537275E-02
  7.47587436E-01  5.21764075E-01 -6.97466985E-01 -4.02682751E-01 -4.37778143E-17
 -8.78537275E-02 -8.78537275E-02  7.47587436E-01
Mulliken Charges                           R   N=           4
 -7.57237693E-01  2.52412564E-01  2.52412564E-01  2.52412564E-01
Optimization MaxStp                        I                2
Optimization Job offset                    I                0
Optimization Num results per geometry      I                2
Optimization Num geometry variables        I               12
Opt point       1 Results for each geome   R   N=           2
  4.44367509E-03  0.00000000E+00
Opt point       1 Geometries               R   N=          12
  0.00000000E+00  0.00000000E+00  0.00000000E+00  0.00000000E+00  1.85336108E+00
  4.37905770E-47  1.60505777E+00 -9.26680538E-01 -2.46519033E-32 -1.60505777E+00
 -9.26680538E-01  0.00000000E+00
Opt point       1 Gradient at each geome   R   N=          12
  2.77555756E-16 -9.71445147E-17 -6.27602676E-16  6.45698772E-14 -2.04723233E-06
  1.88893755E-16 -1.77295524E-06  1.02361611E-06  2.31783303E-16  1.77295517E-06
  1.02361622E-06  2.06925618E-16
Optimization Number of geometries          I   N=           1
           1
ONIOM Charges                              I   N=          16
           0           0           0           0           0           0
           0           0           0           0           0           0
           0           0           0           0
ONIOM Multiplicities                       I   N=          16
           1           0           0           0           0           0
           0           0           0           0           0           0
           0           0           0           0
Atom Layers                                I   N=           4
           1           1           1           1
Atom Modifiers                             I   N=           4
           0           0           0           0
Force Field                                I                0
Atom Modified Types                        C   N=           4
                                                
Int Atom Modified Types                    I   N=           4
           0           0           0           0
Link Atoms                                 I   N=           4
           0           0           0           0
Atom Modified MM Charges                   R   N=           4
  0.00000000E+00  0.00000000E+00  0.00000000E+00  0.00000000E+00
Link Distances                             R   N=          16
  0.00000000E+00  0.00000000E+00  0.00000000E+00  0.00000000E+00  0.00000000E+00
  0.00000000E+00  0.00000000E+00  0.00000000E+00  0.00000000E+00  0.00000000E+00
  0.00000000E+00  0.00000000E+00  0.00000000E+00  0.00000000E+00  0.00000000E+00
  0.00000000E+00
Cartesian Gradient                         R   N=          12
  2.77555756E-16 -9.71445147E-17 -6.27602676E-16  6.45698772E-14 -2.04723233E-06
  1.88893755E-16 -1.77295524E-06  1.02361611E-06  2.31783303E-16  1.77295517E-06
  1.02361622E-06  2.06925618E-16
Cartesian Force Constants                  R   N=          78
  5.15075825E-01  1.27464019E-16  5.15075825E-01 -1.96117247E-17 -1.95822893E-17
 -8.70102149E-02 -6.84764357E-02  4.79962017E-14 -9.45922870E-18  5.88839835E-02
  4.80468704E-14 -2.74907448E-01  1.46668283E-16 -4.37929595E-14  3.02976838E-01
 -5.99987141E-18  2.35172191E-16  2.90034050E-02  9.27129270E-18 -1.76663600E-16
 -9.66853806E-03 -2.23299695E-01  8.93872503E-02  1.44552766E-16  4.79622611E-03
  1.38789348E-03 -4.92005527E-18  2.41953625E-01  8.93872503E-02 -1.20084189E-01
 -7.95501474E-17  3.12282190E-02 -1.40346952E-02 -3.24102190E-17 -1.05695307E-01
  1.19907197E-01  2.19788546E-16 -1.24002853E-16  2.90034050E-02 -2.75231452E-17
  1.11184917E-17 -9.66743345E-03 -1.71297454E-16  9.18199809E-17 -9.66853806E-03
 -2.23299695E-01 -8.93872503E-02 -1.04548302E-16  4.79622611E-03 -1.38789348E-03
  4.13267637E-18 -2.34501559E-02 -1.49201628E-02 -2.56080454E-17  2.41953625E-01
 -8.93872503E-02 -1.20084189E-01 -5.39918017E-17 -3.12282190E-02 -1.40346952E-02
 -2.93949888E-17  1.49201628E-02  1.42116868E-02  2.04660024E-17  1.05695307E-01
  1.19907197E-01 -1.90491145E-16 -1.00210630E-16  2.90034050E-02  3.05281007E-17
  1.19442167E-17 -9.66743345E-03  2.33904689E-17  1.82764971E-17 -9.66743345E-03
  1.27795121E-16  8.03408657E-17 -9.66853806E-03
Dipole Moment                              R   N=           3
 -2.22044605E-15 -1.22124533E-15 -1.75790056E-16
Dipole Derivatives                         R   N=          36
 -6.94470880E-01 -2.96663955E-14  7.50920490E-17  2.87451858E-14 -6.94470880E-01
 -2.31036301E-17 -4.47122528E-16 -4.97607428E-16 -1.70506335E+00  1.42271963E-01
  6.92613445E-14 -2.31346726E-17  5.00115891E-14  3.20708624E-01 -2.78591137E-17
  3.04578043E-17 -5.29977523E-16  5.68354449E-01  2.76099459E-01 -7.72653409E-02
 -8.77215504E-18 -7.72653409E-02  1.86881128E-01  3.17533673E-17 -5.26579128E-16
  3.03530446E-16  5.68354449E-01  2.76099459E-01  7.72653409E-02 -3.82450245E-18
  7.72653409E-02  1.86881128E-01  7.08631856E-18  7.14635150E-16  4.38385155E-16
  5.68354449E-01
Polarizability                             R   N=           6
  4.76867550E+00 -4.99356416E-15  4.76867550E+00  5.44558707E-16  3.78644436E-16
  2.03472537E+00
HyperPolarizability                        R   N=          10
 -8.35664871E-13 -1.07374559E+01  8.70636896E-13  1.07374559E+01  1.29077032E-14
 -5.47920153E-15  1.44989507E-14  1.92174251E-14  9.63500102E-15  2.68343417E-14
NSEScI                                     I               16
Number of SE elements                      I               72
Number of SE core fns                      I                1
ISEScl                                     I   N=          16
        1000          40         108          16          16          16
         112           3          30           5           1           2
          10           0           0           0
RSEScl                                     R   N=          16
  0.00000000E+00  0.00000000E+00  1.24487834E-05  7.62141830E-07  1.00000000E+01
  1.58753163E+00  0.00000000E+00  0.00000000E+00  0.00000000E+00  0.00000000E+00
  0.00000000E+00  0.00000000E+00  0.00000000E+00  0.00000000E+00  0.00000000E+00
  0.00000000E+00
List of SE elements                        I   N=          72
           1           2           3           4           5           6
           7           8           9          10          11          12
          13          14          15          16          17          18
          19          20          21          22          23          24
          25          26          27          28          29          30
          31          32          33          34          35          36
          37          38          39          40          41          42
          43          44          45          46          47          48
          49          50          51          52          53          54
          55          56          57          64          71          72
          73          74          75          76          77          78
          79          80          81          82          83          90
ISEPar                                     I   N=        1152
           1           1           1           0           0           0
           0           1           0           0           0           0
           0           0           0           0           1           0
           1           2           0           0           0           2
           0           0           0           0           0           0
           0           0           1           0           2           2
           0           0           0           1           0           0
           0           0           0           0           0           0
           1           1           2           2           0           0
           0           2           0           0           0           0
           0           0           0           0           1           0
           2           2           0           0           0           3
           0           0           0           0           0           0
           0           0           1           1           2           2
           0           0           0           4           0           0
           0           0           0           0           0           0
           1           1           2           2           0           0
           0           5           0           0           0           0
           0           0           0           0           1           1
           2           2           0           0           0           6
           0           0           0           0           0           0
           0           0           1           1           2           2
           0           0           0           7           0           0
           0           0           0           0           0           0
           1           0           3           2           0           0
           0           6           0           0           0           0
           0           0           0           0           1           1
           3           3           0           0           0           1
           0           0           0           0           0           0
           0           0           1           0           3           3
           0           0           0           2           0           0
           0           0           0           0           0           0
           1           1           3           3           3           0
           0           3           0           0           0           0
           0           0           0           0           1           1
           3           3           3           0           0           4
           0           0           0           0           0           0
           0           0           1           1           3           3
           3           0           0           5           0           0
           0           0           0           0           0           0
           1           1           3           3           3           0
           0           6           0           0           0           0
           0           0           0           0           1           1
           3           3           3           0           0           7
           0           0           0           0           0           0
           0           0           1           0           4           3
           0           0           0           6           0           0
           0           0           0           0           0           0
           1           1           4           4           0           0
           0           1           0           0           0           0
           0           0           0           0           1           1
           4           4           0           0           0           2
           0           0           0           0           0           0
           0           0           1           0           4           4
           3           0           0           3           0           0
           0           0           0           0           0           0
           1           0           4           4           3           0
           0           4           0           0           0           0
           0           0           0           0           1           0
           4           4           3           0           0           5
           0           0           0           0           0           0
           0           0           1           0           4           4
           3           0           0           6           0           0
           0           0           0           0           0           0
           1           0           4           4           3           0
           0           7           0           0           0           0
           0           0           0           0           1           0
           4           4           3           0           0           8
           0           0           0           0           0           0
           0           0           1           0           4           4
           3           0           0           9           0           0
           0           0           0           0           0           0
           1           0           4           4           3           0
           0          10           0           0           0           0
           0           0           0           0           1           0
           4           4           3           0           0          11
           0           0           0           0           0           0
           0           0           1           0           4           4
           0           0           0           2           0           0
           0           0           0           0           0           0
           1           0           4           4           0           0
           0           3           0           0           0           0
           0           0           0           0           1           0
           4           4           0           0           0           4
           0           0           0           0           0           0
           0           0           1           0           4           4
           0           0           0           5           0           0
           0           0           0           0           0           0
           1           0           4           4           0           0
           0           6           0           0           0           0
           0           0           0           0           1           1
           4           4           4           0           0           7
           0           0           0           0           0           0
           0           0           1           0           5           4
           0           0           0           6           0           0
           0           0           0           0           0           0
           1           0           5           5           0           0
           0           1           0           0           0           0
           0           0           0           0           1           1
           5           5           0           0           0           2
           0           0           0           0           0           0
           0           0           1           0           5           5
           4           0           0           3           0           0
           0           0           0           0           0           0
           1           0           5           5           4           0
           0           4           0           0           0           0
           0           0           0           0           1           0
           5           5           4           0           0           5
           0           0           0           0           0           0
           0           0           1           0           5           5
           4           0           0           6           0           0
           0           0           0           0           0           0
           1           0           5           5           4           0
           0           7           0           0           0           0
           0           0           0           0           1           0
           5           5           4           0           0           8
           0           0           0           0           0           0
           0           0           1           0           5           5
           4           0           0           9           0           0
           0           0           0           0           0           0
           1           0           5           5           4           0
           0          10           0           0           0           0
           0           0           0           0           1           0
           5           5           4           0           0          11
           0           0           0           0           0           0
           0           0           1           0           5           5
           0           0           0           2           0           0
           0           0           0           0           0           0
           1           0           5           5           0           0
           0           3           0           0           0           0
           0           0           0           0           1           1
           5           5           0           0           0           4
           0           0           0           0           0           0
           0           0           1           0           5           5
           0           0           0           5           0           0
           0           0           0           0           0           0
           1           0           5           5           0           0
           0           6           0           0           0           0
           0           0           0           0           1           1
           5           5           5           0           0           7
           0           0           0           0           0           0
           0           0           1           0           6           5
           0           0           0           6           0           0
           0           0           0           0           0           0
           1           0           6           6           0           0
           0           1           0           0           0           0
           0           0           0           0           1           0
           6           6           0           0           0           2
           0           0           0           0           0           0
           0           0           1           0           6           6
           5           0           0           3           0           0
           0           0           0           0           0           0
           1           0           6           6           5           0
           0           2           0           0           0           0
           0           0           0           0           1           0
           6           6           5           0           0           3
           0           0           0           0           0           0
           0           0           1           0           6           6
           5           0           0           4           0           0
           0           0           0           0           0           0
           1           0           6           6           5           0