[Molden Format]
[FR-COORD] # Coordinates in bohr
  O    +2.123317    -1.342479    +0.131085 
  C    +4.805731    -1.639582    +0.227309 
  C    +6.039005    +0.948429    -0.119444 
  H    +1.011417    -2.891082    +0.142491 
  H    +8.078814    +0.787605    -0.053439 
  H    +5.427085    +2.218555    +1.362502 
  H    +5.496775    +1.743131    -1.924716 
  H    +5.445823    -2.909309    -1.250950 
  H    +5.380976    -2.439888    +2.025354 
  O    -0.629658    +0.957454    -3.255050 
  H    +0.779918    +0.138245    -2.337399 
  H    -0.720724    +2.719078    -2.422575 
  O    -0.747323    +4.756146    -0.796499 
  H    +0.752818    +5.828358    -1.007846 
  H    -0.456527    +3.835243    +0.911738 
  O    -0.129010    +2.144822    +2.829411 
  H    -1.837605    +1.361577    +3.055730 
  H    +0.882722    +0.764816    +2.062059 
  O    -4.446429    +0.149777    +2.732527 
  H    -5.778260    +1.445363    +2.713786 
  H    -4.469453    -0.522612    +0.951988 
  O    -0.955482    -4.702484    -0.066262 
  H    -2.359363    -3.608605    -0.797300 
  H    -1.607738    -5.187589    +1.603650 
  O    -3.877410    -1.514280    -1.632654 
  H    -2.471228    -0.303333    -2.542100 
  H    -5.209767    -1.875377    -2.865644 
[FREQ] # Frequencies in cm^-1
   42.6405
   67.7022
   75.3825
   91.8647
  107.5406
  123.0536
  135.7794
  154.7744
  180.3871
  200.0009
  240.1759
  258.0058
  290.8466
  368.3011
  421.9699
  441.9872
  465.3008
  522.0140
  531.6573
  558.8900
  573.2625
  595.1820
  619.9892
  733.2952
  755.9906
  793.2853
  812.4097
  859.2836
  913.6399
  938.0485
  961.4909
  993.8727
 1072.2988
 1138.0852
 1185.4467
 1223.3622
 1236.5279
 1301.6946
 1338.0270
 1408.9860
 1447.1955
 1477.8995
 1516.1580
 1556.7758
 1575.2188
 1663.6840
 1679.5834
 1681.1265
 1710.6516
 1767.9047
 1942.2037
 2162.0280
 2176.9151
 2201.0175
 2211.7363
 2237.8522
 2254.9242
 2460.0576
 2956.8205
 3178.4793
 3182.8362
 3201.2673
 3208.8113
 3271.7287
 3279.5606
 3568.3835
 3619.8955
 3859.0784
 3978.7179
 4099.7211
 4166.8822
 4327.9309
 4331.7582
 4336.6204
 4342.7564
[FR-NORM-COORD] # Displacements in bohr
vibration  1
      -0.007     +0.018     +0.163
      -0.007     +0.036     +0.237
      +0.004     -0.083     -0.612
      -0.002     +0.004     +0.034
      +0.001     -0.017     -0.145
      -0.010     +0.121     -0.306
      +0.015     -0.201     -0.259
      -0.004     -0.130     +0.188
      -0.004     +0.179     +0.144
      +0.156     +0.062     +0.101
      +0.026     +0.011     +0.042
      +0.027     +0.011     +0.032
      +0.017     +0.022     +0.167
      +0.005     +0.009     +0.064
      -0.014     -0.001     +0.041
      -0.131     -0.045     +0.149
      -0.034     -0.015     +0.010
      -0.021     -0.005     +0.041
      -0.127     -0.054     -0.121
      -0.031     -0.013     -0.040
      -0.011     -0.005     -0.034
      +0.005     +0.028     +0.046
      +0.011     +0.006     -0.010
      -0.021     +0.010     +0.004
      +0.088     +0.015     -0.118
      +0.032     +0.011     -0.007
      +0.039     +0.004     -0.048
vibration  2
      -0.012     -0.106     -0.002
      +0.020     +0.088     -0.382
      -0.222     +0.244     -0.091
      +0.001     -0.035     +0.023
      -0.058     +0.113     -0.112
      -0.037     -0.018     +0.061
      -0.150     +0.150     +0.034
      -0.019     +0.113     -0.197
      +0.087     -0.051     -0.171
      +0.180     -0.140     +0.160
      +0.017     -0.048     +0.078
      +0.050     -0.034     +0.028
      +0.277     -0.076     +0.137
      +0.091     -0.046     +0.052
      +0.034     -0.019     +0.036
      -0.072     -0.145     +0.186
      -0.036     -0.012     +0.003
      -0.021     -0.041     +0.055
      -0.237     +0.248     -0.217
      -0.015     +0.106     -0.121
      -0.029     +0.025     -0.042
      -0.032     -0.028     +0.219
      +0.001     -0.005     +0.032
      -0.013     +0.028     +0.063
      +0.078     -0.084     -0.024
      +0.036     -0.018     +0.006
      +0.040     -0.038     -0.023
vibration  3
      -0.053     -0.111     -0.008
      -0.032     +0.140     +0.257
      -0.231     +0.204     +0.006
      +0.010     -0.046     -0.048
      -0.065     +0.116     +0.063
      -0.140     +0.104     -0.067
      -0.039     -0.030     -0.046
      +0.059     -0.002     +0.140
      -0.033     +0.127     +0.120
      -0.124     -0.089     +0.012
      -0.019     -0.031     -0.025
      +0.006     -0.016     +0.003
      +0.281     -0.082     -0.045
      +0.099     -0.063     -0.029
      +0.057     -0.024     -0.007
      +0.111     -0.073     -0.050
      +0.011     +0.023     +0.007
      -0.011     -0.043     -0.021
      -0.044     +0.299     +0.108
      +0.022     +0.109     -0.030
      -0.003     +0.026     +0.045
      +0.117     -0.218     -0.481
      +0.006     -0.027     -0.038
      +0.060     -0.162     -0.140
      -0.052     -0.038     +0.226
      -0.022     -0.009     +0.037
      -0.033     +0.005     +0.074
vibration  4
      -0.103     -0.037     -0.024
      -0.080     +0.140     +0.087
      -0.254     +0.216     +0.012
      -0.036     -0.008     +0.013
      -0.071     +0.107     +0.025
      -0.115     +0.069     -0.019
      -0.073     +0.027     -0.012
      +0.017     +0.034     +0.049
      -0.026     +0.076     +0.042
      +0.096     -0.031     -0.134
      +0.006     -0.030     -0.025
      +0.055     -0.006     -0.033
      +0.392     -0.040     -0.119
      +0.137     -0.059     -0.009
      +0.046     -0.018     -0.024
      +0.042     -0.077     -0.088
      +0.018     -0.026     -0.002
      +0.003     -0.023     -0.028
      +0.187     -0.479     +0.169
      -0.017     -0.185     +0.156
      +0.015     -0.035     +0.012
      -0.246     +0.151     +0.184
      -0.039     +0.043     +0.007
      -0.079     +0.100     +0.057
      -0.038     +0.170     -0.111
      +0.005     +0.026     -0.031
      -0.010     +0.043     -0.027
vibration  5
      -0.087     +0.005     +0.255
      -0.069     -0.083     -0.165
      -0.039     -0.087     -0.073
      -0.010     -0.004     +0.028
      -0.010     -0.046     -0.112
      +0.062     -0.064     +0.042
      -0.079     +0.034     +0.025
      -0.088     +0.014     -0.110
      +0.043     -0.082     -0.094
      +0.186     -0.098     +0.221
      +0.016     -0.013     +0.118
      +0.043     -0.002     -0.009
      +0.154     +0.248     -0.227
      +0.072     +0.020     -0.036
      -0.025     +0.090     -0.039
      -0.295     +0.406     +0.044
      -0.064     +0.072     +0.003
      -0.041     +0.093     +0.078
      +0.027     -0.209     +0.139
      -0.070     -0.131     +0.071
      +0.018     -0.039     +0.028
      +0.081     -0.172     -0.293
      +0.014     -0.030     -0.037
      +0.008     -0.131     -0.103
      +0.047     +0.013     +0.091
      +0.027     +0.001     +0.038
      +0.005     +0.040     +0.019
vibration  6
      -0.158     -0.151     +0.180
      -0.126     -0.012     +0.017
      -0.295     +0.065     -0.010
      -0.047     -0.041     +0.028
      -0.082     +0.054     -0.044
      -0.078     +0.000     +0.016
      -0.135     +0.020     +0.012
      -0.040     +0.013     -0.011
      +0.002     -0.003     -0.007
      +0.274     -0.064     +0.024
      +0.033     -0.013     +0.066
      +0.012     -0.020     +0.007
      -0.423     -0.107     +0.046
      -0.198     +0.096     -0.015
      -0.008     -0.001     +0.010
      +0.344     +0.136     +0.079
      +0.089     +0.035     +0.033
      +0.062     +0.021     +0.009
      +0.390     +0.107     -0.092
      +0.091     +0.020     -0.007
      +0.085     +0.033     -0.025
      -0.145     -0.086     -0.086
      -0.016     -0.001     -0.037
      -0.066     -0.029     -0.036
      +0.137     +0.061     -0.140
      +0.058     -0.001     -0.034
      +0.018     +0.047     -0.027
vibration  7
      -0.140     +0.083     +0.077
      -0.128     -0.004     +0.041
      -0.065     -0.039     +0.021
      -0.020     +0.016     +0.028
      -0.020     -0.029     -0.012
      +0.005     -0.008     +0.013
      -0.027     -0.005     +0.012
      -0.053     -0.007     +0.010
      -0.037     -0.005     +0.010
      -0.377     +0.220     +0.079
      -0.070     +0.050     -0.029
      -0.065     +0.049     +0.041
      +0.261     +0.244     +0.121
      +0.115     -0.017     -0.019
      +0.068     +0.056     +0.028
      +0.199     +0.167     +0.064
      +0.047     +0.042     -0.021
      +0.041     +0.042     +0.002
      +0.251     -0.035     -0.294
      +0.027     -0.046     -0.070
      +0.034     -0.053     -0.055
      +0.062     -0.192     +0.139
      +0.013     -0.090     -0.013
      -0.008     -0.015     +0.036
      -0.077     -0.413     -0.214
      -0.072     -0.034     -0.012
      -0.019     -0.096     -0.056
vibration  8
      +0.029     +0.261     +0.314
      +0.022     +0.083     -0.010
      +0.162     +0.017     -0.030
      -0.006     +0.074     +0.039
      +0.046     -0.043     -0.100
      +0.140     -0.006     +0.039
      -0.013     +0.048     +0.028
      -0.060     +0.032     -0.039
      +0.048     -0.010     -0.031
      -0.126     -0.263     -0.136
      -0.036     -0.065     -0.029
      -0.017     -0.072     -0.009
      +0.093     -0.419     -0.001
      +0.020     -0.107     -0.029
      +0.022     -0.061     +0.029
      +0.061     +0.082     +0.326
      +0.017     +0.006     +0.045
      +0.038     +0.026     +0.097
      +0.083     +0.004     -0.069
      +0.011     -0.009     +0.020
      -0.014     +0.012     -0.020
      +0.013     +0.298     -0.210
      -0.027     +0.041     -0.044
      -0.008     -0.012     -0.083
      -0.319     -0.003     -0.147
      -0.059     -0.033     -0.043
      -0.079     -0.008     -0.035
vibration  9
      +0.225     -0.200     +0.068
      +0.213     +0.001     +0.052
      +0.043     +0.083     +0.003
      +0.016     -0.034     -0.002
      +0.016     +0.065     +0.002
      -0.013     +0.020     -0.006
      -0.004     +0.003     -0.004
      +0.085     +0.005     +0.021
      +0.077     +0.021     +0.019
      -0.010     -0.183     +0.531
      -0.021     -0.036     +0.176
      -0.012     -0.016     +0.054
      -0.080     +0.235     -0.041
      -0.009     +0.040     -0.035
      +0.009     +0.042     -0.028
      +0.129     -0.084     -0.282
      +0.036     -0.022     -0.063
      +0.039     -0.021     -0.065
      +0.006     -0.041     -0.091
      +0.008     -0.003     +0.023
      -0.066     -0.011     -0.019
      -0.123     +0.265     -0.099
      -0.052     +0.047     -0.028
      -0.026     +0.040     -0.031
      -0.367     -0.089     -0.125
      -0.045     -0.018     +0.037
      -0.042     -0.028     -0.083
vibration  10
      +0.066     -0.066     +0.586
      +0.075     -0.037     +0.024
      -0.055     +0.015     -0.062
      +0.018     -0.013     +0.087
      -0.008     +0.004     -0.261
      +0.152     -0.055     +0.102
      -0.225     +0.075     +0.076
      -0.057     +0.024     -0.057
      +0.130     -0.045     -0.043
      -0.121     +0.296     -0.179
      -0.009     +0.067     -0.102
      -0.016     +0.073     +0.004
      -0.008     -0.013     -0.012
      +0.001     -0.010     -0.006
      +0.014     -0.057     -0.014
      +0.084     -0.215     -0.377
      +0.028     -0.039     -0.039
      +0.025     -0.064     -0.089
      -0.163     -0.004     +0.098
      +0.001     +0.042     -0.005
      -0.031     +0.003     +0.027
      +0.044     -0.038     +0.018
      +0.029     +0.008     +0.003
      -0.026     -0.054     -0.023
      +0.072     +0.064     -0.013
      -0.019     +0.029     -0.005
      +0.030     -0.005     -0.011
vibration  11
      -0.334     +0.225     -0.038
      -0.349     +0.033     -0.021
      -0.028     -0.125     +0.015
      -0.131     +0.042     -0.020
      -0.014     -0.121     -0.012
      +0.057     -0.020     +0.017
      +0.013     -0.001     +0.013
      -0.132     -0.007     -0.006
      -0.125     -0.014     -0.008
      +0.086     -0.071     +0.227
      +0.010     -0.008     +0.093
      +0.001     +0.001     +0.035
      +0.032     -0.059     -0.008
      +0.015     -0.029     -0.024
      +0.024     -0.031     -0.002
      +0.170     -0.155     -0.219
      +0.046     -0.017     -0.007
      +0.015     -0.044     -0.097
      -0.107     -0.019     +0.089
      -0.001     +0.023     -0.016
      -0.017     -0.019     +0.032
      +0.200     +0.414     -0.099
      +0.009     +0.103     -0.018
      +0.097     +0.071     -0.018
      +0.263     -0.200     +0.061
      +0.079     +0.009     +0.010
      +0.117     -0.159     -0.007
vibration  12
      -0.010     +0.009     +0.019
      -0.014     +0.001     +0.006
      +0.002     -0.007     -0.002
      -0.006     +0.001     +0.003
      +0.001     -0.008     -0.018
      +0.017     -0.004     +0.008
      -0.012     +0.004     +0.006
      -0.006     -0.000     +0.001
      -0.001     -0.000     +0.001
      -0.149     +0.099     +0.242
      -0.020     +0.004     +0.013
      -0.021     +0.050     +0.101
      +0.021     -0.289     +0.030
      +0.037     -0.125     -0.021
      -0.022     -0.101     +0.040
      -0.379     -0.058     -0.228
      -0.109     -0.043     -0.108
      -0.037     +0.002     -0.005
      +0.434     +0.003     -0.378
      +0.097     -0.015     -0.064
      +0.110     -0.015     -0.111
      -0.011     +0.064     +0.007
      -0.002     +0.030     +0.012
      +0.004     +0.015     +0.004
      +0.096     +0.182     +0.293
      +0.063     +0.080     +0.028
      -0.066     +0.103     +0.156
vibration  13
      -0.001     -0.014     -0.363
      -0.010     +0.055     +0.243
      +0.028     +0.005     +0.003
      +0.005     -0.007     -0.056
      +0.018     -0.081     -0.507
      +0.415     -0.064     +0.226
      -0.400     +0.130     +0.181
      +0.076     -0.049     +0.160
      -0.091     +0.099     +0.136
      +0.042     -0.080     +0.019
      +0.009     -0.020     +0.013
      +0.009     -0.023     -0.013
      -0.005     +0.063     +0.008
      -0.005     +0.024     +0.015
      -0.007     +0.026     -0.002
      -0.022     +0.004     +0.076
      -0.008     -0.001     +0.005
      -0.015     +0.009     -0.001
      +0.022     +0.001     -0.021
      +0.003     -0.003     -0.002
      +0.006     +0.000     -0.006
      -0.034     -0.044     +0.001
      -0.010     -0.013     +0.003
      +0.013     +0.029     +0.021
      -0.019     +0.002     +0.020
      +0.004     -0.008     +0.004
      -0.013     +0.016     +0.010
vibration  14
      -0.226     +0.181     +0.078
      -0.136     +0.327     -0.050
      +0.380     +0.149     -0.016
      -0.021     +0.022     +0.037
      +0.095     -0.146     +0.039
      +0.202     +0.097     -0.013
      +0.229     +0.090     -0.020
      -0.073     +0.090     -0.024
      -0.039     +0.075     -0.024
      +0.156     -0.108     +0.081
      +0.016     -0.017     +0.060
      +0.029     -0.022     -0.011
      -0.000     +0.053     +0.027
      -0.008     +0.031     +0.032
      +0.007     -0.013     -0.009
      +0.095     -0.181     -0.160
      +0.028     -0.043     -0.023
      +0.014     -0.038     -0.061
      -0.006     -0.039     -0.016
      +0.077     +0.071     -0.056
      +0.013     -0.010     -0.007
      -0.221     -0.403     +0.053
      -0.043     -0.110     +0.004
      -0.102     -0.141     -0.015
      -0.096     +0.067     +0.008
      -0.001     -0.018     +0.022
      -0.075     +0.152     +0.017
vibration  15
      +0.005     +0.242     +0.016
      -0.062     -0.124     +0.017
      -0.228     -0.122     +0.013
      +0.014     +0.080     +0.034
      -0.061     +0.043     +0.002
      -0.120     -0.057     -0.000
      -0.106     -0.060     +0.005
      -0.055     -0.045     -0.003
      -0.040     -0.051     +0.005
      +0.122     -0.172     -0.099
      +0.013     -0.027     +0.018
      +0.041     -0.044     -0.076
      +0.000     +0.234     +0.012
      -0.012     +0.096     +0.086
      -0.021     +0.031     -0.023
      +0.017     -0.175     -0.009
      +0.032     -0.107     -0.026
      +0.052     +0.005     -0.013
      +0.022     -0.145     -0.102
      +0.267     +0.232     -0.177
      +0.028     -0.037     -0.030
      +0.393     +0.014     +0.123
      +0.041     -0.094     +0.047
      +0.115     -0.093     +0.009
      -0.296     +0.196     +0.050
      -0.065     -0.024     +0.014
      -0.173     +0.226     +0.067
vibration  16
      +0.021     -0.037     +0.009
      +0.029     +0.009     +0.003
      +0.029     +0.024     -0.002
      -0.009     -0.006     -0.001
      +0.009     +0.005     -0.001
      +0.011     +0.008     -0.001
      +0.010     +0.007     -0.001
      +0.017     +0.005     +0.002
      +0.015     +0.007     +0.001
      +0.017     +0.017     -0.053
      +0.002     +0.008     -0.004
      -0.007     +0.000     -0.008
      +0.008     +0.067     +0.010
      +0.084     -0.087     +0.049
      -0.079     -0.012     +0.005
      -0.338     -0.014     -0.007
      -0.033     -0.105     +0.024
      -0.008     +0.041     +0.027
      +0.219     +0.053     +0.359
      +0.464     +0.433     -0.198
      +0.063     -0.066     +0.119
      -0.173     +0.082     -0.056
      -0.021     +0.023     -0.065
      -0.086     +0.053     -0.021
      +0.075     -0.236     -0.217
      +0.000     -0.034     -0.041
      +0.054     -0.120     -0.074
vibration  17
      +0.033     -0.091     +0.002
      +0.055     +0.003     +0.008
      +0.037     +0.034     +0.000
      -0.014     -0.021     -0.003
      +0.011     +0.012     +0.001
      +0.012     +0.012     -0.001
      +0.013     +0.008     -0.001
      +0.032     +0.004     +0.007
      +0.022     +0.011     +0.005
      -0.157     +0.070     +0.066
      -0.030     +0.013     +0.003
      -0.030     +0.028     +0.008
      +0.004     -0.042     -0.184
      -0.032     +0.021     -0.106
      +0.033     +0.044     -0.028
      +0.269     +0.166     +0.185
      +0.088     -0.018     +0.032
      +0.088     +0.049     +0.048
      -0.323     -0.367     -0.160
      +0.195     +0.192     -0.404
      +0.081     -0.163     -0.018
      -0.202     +0.080     -0.069
      -0.028     +0.044     -0.033
      -0.072     +0.045     -0.019
      +0.208     +0.052     +0.236
      +0.032     +0.048     +0.017
      -0.052     +0.067     +0.160
vibration  18
      +0.017     +0.117     +0.008
      +0.007     -0.024     +0.006
      -0.044     -0.028     -0.000
      +0.021     +0.025     -0.135
      -0.011     +0.017     -0.005
      -0.026     -0.014     -0.001
      -0.030     -0.018     +0.001
      -0.018     -0.008     -0.005
      -0.008     -0.018     -0.001
      +0.037     +0.097     +0.210
      +0.024     +0.042     +0.031
      -0.019     +0.025     +0.062
      -0.011     -0.228     -0.049
      +0.038     -0.131     -0.086
      +0.007     -0.038     +0.005
      +0.044     +0.080     -0.069
      +0.008     +0.035     +0.023
      -0.003     +0.003     -0.010
      -0.101     +0.035     +0.168
      -0.017     +0.018     -0.046
      +0.035     -0.020     +0.044
      +0.106     -0.253     -0.059
      +0.058     -0.135     -0.182
      +0.097     +0.640     +0.224
      -0.066     +0.011     -0.194
      +0.007     +0.012     +0.008
      -0.140     +0.300     -0.005
vibration  19
      -0.122     -0.335     +0.205
      -0.097     +0.094     -0.001
      +0.109     +0.056     -0.011
      -0.015     -0.112     -0.086
      +0.025     -0.084     +0.015
      +0.088     +0.049     -0.008
      +0.095     +0.042     -0.011
      -0.013     +0.048     -0.014
      +0.035     +0.024     -0.021
      -0.058     -0.150     -0.257
      -0.046     -0.045     -0.004
      +0.033     -0.025     -0.109
      +0.030     +0.293     +0.004
      -0.097     +0.246     +0.123
      +0.008     +0.045     -0.027
      -0.087     -0.156     +0.115
      -0.036     -0.004     +0.012
      -0.048     -0.062     +0.040
      +0.130     +0.027     -0.122
      -0.017     -0.047     -0.001
      +0.039     +0.007     -0.026
      +0.052     +0.109     -0.138
      +0.028     +0.038     -0.059
      +0.151     +0.472     +0.150
      +0.014     -0.056     +0.181
      -0.050     -0.012     -0.014
      -0.064     -0.033     +0.126
vibration  20
      -0.078     -0.211     +0.034
      -0.071     +0.050     -0.005
      +0.044     +0.025     -0.001
      -0.001     -0.069     +0.001
      +0.008     -0.054     +0.005
      +0.052     +0.025     +0.001
      +0.049     +0.024     -0.004
      +0.002     +0.020     +0.002
      -0.000     +0.023     -0.003
      -0.001     +0.012     -0.029
      -0.036     +0.037     +0.088
      -0.145     -0.023     +0.015
      -0.240     +0.219     -0.126
      +0.409     -0.624     -0.211
      -0.130     +0.004     -0.043
      +0.071     -0.120     +0.180
      +0.033     -0.046     +0.084
      +0.007     -0.034     +0.039
      +0.018     +0.005     -0.051
      +0.010     +0.007     +0.053
      -0.006     +0.063     -0.035
      +0.152     +0.015     +0.040
      +0.032     +0.026     +0.047
      +0.075     -0.027     +0.015
      +0.010     +0.181     -0.045
      -0.001     -0.001     -0.050
      +0.007     -0.014     +0.002
vibration  21
      -0.127     -0.313     -0.041
      -0.132     +0.078     -0.018
      +0.055     +0.031     +0.000
      +0.019     -0.112     -0.014
      +0.009     -0.088     +0.012
      +0.077     +0.038     +0.001
      +0.072     +0.038     -0.004
      +0.011     +0.027     +0.011
      -0.021     +0.041     -0.001
      -0.065     +0.168     +0.150
      -0.052     -0.006     +0.047
      +0.040     +0.056     +0.017
      +0.082     -0.250     -0.128
      -0.160     +0.185     -0.013
      +0.055     -0.011     -0.009
      -0.016     +0.131     +0.046
      +0.005     -0.015     -0.038
      +0.022     +0.036     +0.034
      -0.034     -0.098     +0.016
      +0.193     +0.185     +0.067
      -0.138     +0.041     -0.021
      +0.301     -0.104     +0.093
      +0.082     +0.065     +0.112
      +0.157     -0.031     +0.054
      -0.208     +0.301     -0.133
      -0.034     +0.089     -0.001
      +0.196     -0.260     -0.206
vibration  22
      +0.085     +0.379     +0.059
      +0.090     -0.057     +0.024
      -0.062     -0.040     +0.003
      +0.022     +0.097     -0.073
      -0.012     +0.074     -0.009
      -0.071     -0.033     -0.003
      -0.068     -0.042     +0.003
      -0.034     -0.022     -0.012
      +0.002     -0.040     +0.002
      +0.034     -0.049     +0.005
      +0.042     +0.044     -0.007
      -0.016     -0.004     -0.030
      -0.033     +0.094     -0.080
      +0.043     -0.043     -0.014
      -0.023     +0.004     -0.027
      +0.045     -0.120     +0.065
      +0.034     -0.101     -0.052
      +0.086     +0.019     +0.040
      +0.037     -0.062     -0.167
      +0.109     +0.088     +0.172
      -0.182     +0.069     -0.062
      -0.249     -0.253     -0.146
      -0.018     +0.061     +0.061
      +0.076     +0.248     +0.113
      -0.022     +0.096     +0.238
      +0.017     -0.008     +0.060
      +0.306     -0.415     -0.148
vibration  23
      +0.023     +0.118     +0.005
      +0.011     -0.008     +0.007
      -0.014     -0.016     +0.003
      +0.004     +0.035     +0.032
      -0.003     +0.015     -0.005
      -0.017     -0.011     +0.001
      -0.019     -0.011     +0.002
      -0.010     -0.008     +0.002
      -0.007     -0.006     +0.004
      -0.114     +0.181     +0.198
      -0.047     +0.094     +0.120
      -0.020     +0.090     -0.089
      +0.018     +0.020     -0.544
      -0.134     +0.206     -0.078
      +0.032     -0.014     -0.144
      -0.043     -0.440     +0.332
      -0.028     -0.058     +0.076
      -0.026     -0.144     +0.144
      +0.119     +0.124     +0.059
      -0.051     -0.054     +0.058
      +0.051     +0.038     +0.009
      -0.001     +0.007     +0.041
      +0.013     -0.023     -0.051
      -0.102     -0.078     -0.053
      +0.097     -0.046     -0.109
      +0.006     +0.042     +0.010
      -0.035     +0.116     -0.001
vibration  24
      +0.006     +0.091     -0.022
      +0.040     -0.004     -0.002
      -0.011     -0.031     +0.006
      +0.054     -0.001     +0.144
      -0.002     +0.013     +0.001
      -0.022     -0.021     +0.004
      -0.017     -0.014     +0.004
      -0.010     -0.016     +0.004
      -0.018     -0.002     +0.008
      -0.248     -0.292     +0.044
      -0.168     -0.142     +0.127
      -0.032     -0.063     -0.003
      +0.002     +0.084     +0.104
      -0.007     +0.028     +0.000
      +0.028     +0.023     +0.016
      +0.007     -0.038     -0.062
      -0.023     +0.057     +0.016
      -0.042     -0.036     -0.014
      +0.024     +0.051     +0.085
      -0.098     -0.096     -0.203
      +0.141     -0.110     +0.061
      +0.131     -0.137     +0.049
      +0.240     +0.100     -0.212
      -0.386     +0.123     -0.101
      +0.142     +0.356     -0.138
      -0.066     +0.097     -0.137
      +0.074     -0.274     +0.034
vibration  25
      +0.005     +0.046     +0.021
      +0.007     +0.004     +0.006
      -0.001     -0.009     -0.002
      +0.014     +0.009     -0.105
      +0.000     +0.003     -0.006
      -0.004     -0.003     -0.002
      -0.009     -0.010     -0.001
      -0.015     +0.006     -0.010
      +0.003     -0.013     -0.005
      +0.188     +0.139     -0.018
      +0.049     +0.068     +0.016
      -0.000     +0.031     -0.005
      -0.019     -0.022     -0.030
      +0.002     -0.027     -0.068
      +0.043     -0.018     -0.018
      -0.001     -0.075     +0.003
      -0.060     +0.143     +0.069
      -0.130     -0.114     +0.002
      +0.112     +0.066     +0.082
      -0.186     -0.209     -0.511
      +0.243     -0.341     +0.158
      -0.080     -0.011     -0.018
      -0.099     +0.023     +0.195
      +0.278     -0.059     +0.095
      -0.249     +0.058     +0.019
      -0.029     -0.013     -0.010
      +0.056     -0.260     -0.041
vibration  26
      -0.009     -0.083     -0.050
      -0.068     +0.025     -0.020
      -0.019     -0.001     -0.002
      +0.014     -0.014     +0.114
      -0.009     -0.045     +0.009
      +0.020     +0.004     +0.006
      +0.026     +0.023     +0.000
      +0.004     +0.003     +0.007
      -0.011     +0.024     +0.001
      +0.206     +0.204     -0.033
      +0.117     +0.053     -0.119
      +0.119     +0.065     -0.044
      -0.040     -0.059     -0.130
      +0.089     -0.089     +0.280
      -0.200     -0.085     -0.035
      +0.052     +0.023     +0.038
      +0.045     -0.050     +0.053
      +0.030     +0.044     -0.043
      +0.039     +0.030     -0.075
      -0.055     -0.062     -0.080
      -0.063     -0.154     +0.053
      +0.126     +0.055     +0.034
      +0.167     -0.023     -0.280
      -0.426     +0.116     -0.139
      -0.291     -0.141     +0.279
      -0.016     +0.018     +0.189
      +0.122     -0.024     -0.149
vibration  27
      -0.001     +0.026     +0.013
      +0.048     -0.018     +0.008
      +0.014     +0.002     +0.001
      -0.012     +0.002     -0.051
      +0.006     +0.029     -0.003
      -0.013     -0.004     -0.002
      -0.014     -0.011     +0.001
      +0.002     -0.006     -0.001
      +0.004     -0.011     +0.002
      -0.150     -0.045     +0.104
      -0.095     -0.037     +0.094
      +0.082     +0.052     -0.118
      +0.013     -0.054     -0.140
      +0.112     -0.024     +0.670
      -0.391     -0.158     -0.056
      +0.080     +0.085     -0.041
      +0.105     -0.083     +0.222
      +0.027     +0.069     -0.098
      -0.025     +0.024     -0.006
      -0.049     -0.038     -0.022
      +0.084     +0.059     -0.024
      -0.059     -0.044     -0.014
      -0.071     +0.023     +0.135
      +0.205     -0.051     +0.070
      +0.117     +0.067     -0.132
      -0.034     +0.050     -0.070
      -0.056     -0.037     +0.078
vibration  28
      -0.005     +0.025     -0.036
      +0.035     -0.006     -0.012
      +0.005     -0.010     +0.003
      +0.007     -0.003     +0.023
      +0.002     +0.017     +0.005
      -0.014     -0.019     +0.009
      -0.010     +0.002     +0.007
      +0.014     -0.027     +0.022
      -0.026     +0.021     +0.018
      +0.288     +0.237     -0.087
      -0.157     +0.100     +0.395
      -0.064     +0.079     -0.103
      +0.024     -0.097     +0.031
      -0.006     -0.014     -0.016
      +0.048     -0.059     -0.025
      +0.006     +0.045     -0.063
      +0.006     -0.021     -0.054
      +0.078     +0.002     +0.114
      -0.058     -0.026     -0.014
      +0.025     +0.035     +0.111
      -0.001     +0.107     -0.051
      +0.004     -0.032     -0.005
      +0.062     +0.057     -0.028
      -0.101     +0.026     -0.030
      -0.138     -0.130     +0.039
      -0.145     +0.002     -0.255
      -0.337     -0.339     +0.427
vibration  29
      -0.007     +0.012     +0.092
      +0.008     -0.039     -0.224
      +0.007     -0.015     -0.147
      -0.011     +0.009     +0.016
      -0.002     +0.032     +0.172
      -0.130     -0.375     +0.229
      +0.120     +0.428     +0.119
      +0.005     -0.393     +0.272
      -0.016     +0.448     +0.151
      -0.018     -0.015     -0.010
      -0.006     +0.012     +0.016
      -0.012     +0.002     -0.015
      -0.001     +0.004     +0.009
      +0.002     -0.001     +0.006
      +0.006     -0.011     -0.005
      -0.002     -0.002     -0.010
      +0.001     -0.009     -0.022
      +0.029     +0.001     +0.036
      +0.004     +0.007     +0.005
      -0.010     -0.010     -0.015
      -0.004     -0.021     +0.011
      -0.008     -0.000     -0.009
      -0.017     -0.009     +0.013
      +0.036     +0.006     +0.014
      +0.011     +0.006     -0.001
      +0.010     -0.001     +0.019
      +0.027     +0.032     -0.035
vibration  30
      -0.005     -0.035     -0.023