[Molden Format]
[FR-COORD] # Coordinates in bohr
  O    -2.062153    -1.140577    +0.002514 
  C    -4.713618    -1.591151    -0.200343 
  C    -5.388336    -2.794091    -2.746318 
  H    -0.853571    -2.618383    +0.010111 
  H    -7.415078    -3.030029    -2.923644 
  H    -4.505774    -4.635886    -2.926604 
  H    -4.722583    -1.604121    -4.272263 
  H    -5.654849    +0.211299    -0.016592 
  H    -5.364784    -2.793557    +1.328334 
  O    +0.337308    +1.243658    +3.581681 
  H    -0.960491    +0.354538    +2.568195 
  H    +0.331797    +3.036572    +2.812460 
  O    +0.271241    +5.125428    +1.256628 
  H    -1.313246    +6.074912    +1.437426 
  H    +0.121112    +4.245690    -0.491700 
  O    +0.002811    +2.603541    -2.472213 
  H    +1.774217    +1.959738    -2.646583 
  H    -0.927762    +1.123567    -1.791754 
  O    +4.451512    +0.927979    -2.241700 
  H    +5.681923    +2.314833    -2.116814 
  H    +4.447260    +0.192529    -0.486172 
  O    +1.223415    -4.283987    +0.271196 
  H    +2.507914    -3.105102    +1.088674 
  H    +1.982299    -4.677488    -1.377618 
  O    +3.824106    -0.931851    +2.037523 
  H    +2.293885    +0.147007    +2.918538 
  H    +5.128603    -1.230668    +3.316204 
[FREQ] # Frequencies in cm^-1
   41.3363
   58.0652
   79.4764
  101.3966
  107.9097
  132.2291
  136.3983
  151.5470
  168.4023
  184.3561
  229.2745
  257.1993
  289.6986
  393.9614
  439.7564
  455.6320
  476.8508
  517.7634
  526.3720
  554.7102
  568.8325
  592.8317
  621.0795
  734.4280
  756.9292
  794.0682
  812.3431
  860.3590
  898.0433
  939.4375
  949.3040
  995.1214
 1077.1948
 1142.0983
 1172.3231
 1218.7851
 1257.9335
 1292.8631
 1337.1654
 1417.9119
 1450.5548
 1492.8472
 1520.2808
 1543.0573
 1571.5274
 1661.0182
 1671.6554
 1681.6358
 1701.8765
 1760.1543
 1944.5075
 2161.4823
 2177.1615
 2200.5668
 2212.2293
 2238.7525
 2255.9180
 2450.1050
 2937.0904
 3174.9597
 3187.1043
 3200.1526
 3243.2513
 3265.9975
 3275.5140
 3565.8027
 3609.9094
 3858.0781
 3980.9306
 4093.9015
 4163.0509
 4327.6755
 4331.3199
 4336.2862
 4342.3376
[FR-NORM-COORD] # Displacements in bohr
vibration  1
      +0.043     -0.159     +0.157
      +0.045     -0.162     +0.085
      +0.014     +0.575     -0.253
      +0.021     -0.032     +0.041
      +0.005     +0.159     -0.076
      +0.024     +0.193     -0.242
      -0.023     +0.307     +0.024
      -0.003     -0.072     +0.187
      +0.038     -0.184     -0.072
      +0.043     +0.036     +0.029
      +0.011     -0.012     +0.026
      -0.010     +0.001     -0.012
      -0.149     -0.062     -0.122
      -0.046     -0.030     -0.032
      -0.036     -0.033     -0.022
      -0.128     -0.209     -0.017
      -0.028     -0.038     -0.010
      -0.014     -0.053     +0.020
      -0.068     -0.064     -0.071
      -0.026     -0.006     -0.039
      -0.003     +0.002     -0.010
      +0.135     -0.048     +0.187
      +0.029     +0.005     +0.030
      +0.030     -0.023     +0.047
      +0.070     +0.088     +0.017
      +0.015     +0.019     +0.004
      +0.027     +0.041     -0.000
vibration  2
      +0.071     -0.080     -0.120
      +0.026     -0.007     +0.231
      -0.358     +0.141     +0.268
      +0.025     -0.019     -0.049
      -0.113     +0.055     +0.159
      -0.121     +0.039     +0.013
      -0.161     +0.060     +0.068
      +0.025     +0.000     +0.133
      +0.062     -0.021     +0.076
      -0.186     -0.101     -0.169
      -0.011     -0.033     -0.086
      -0.042     -0.025     -0.032
      -0.147     -0.050     -0.152
      -0.049     -0.028     -0.066
      +0.001     -0.010     -0.039
      +0.209     -0.084     -0.189
      +0.062     -0.009     +0.003
      +0.042     -0.021     -0.064
      +0.281     +0.167     +0.277
      +0.036     +0.069     +0.117
      +0.040     +0.022     +0.062
      +0.149     +0.043     -0.265
      +0.017     +0.007     -0.025
      +0.058     +0.055     -0.068
      -0.040     -0.037     +0.120
      -0.032     -0.011     +0.005
      -0.038     -0.025     +0.055
vibration  3
      +0.041     -0.071     -0.011
      -0.000     +0.184     -0.069
      -0.031     +0.044     +0.006
      -0.021     -0.045     +0.041
      -0.015     +0.075     -0.017
      -0.067     -0.020     +0.057
      +0.048     -0.046     -0.019
      +0.051     +0.085     -0.074
      -0.052     +0.109     +0.002
      +0.153     -0.099     -0.105
      +0.027     -0.027     -0.010
      +0.012     -0.020     -0.019
      -0.179     -0.077     -0.022
      -0.068     -0.060     +0.009
      -0.034     -0.017     -0.010
      +0.007     -0.047     -0.033
      +0.019     +0.033     -0.004
      +0.032     -0.031     -0.009
      +0.179     +0.500     +0.031
      -0.023     +0.177     +0.116
      +0.024     +0.039     -0.028
      -0.206     -0.274     +0.438
      -0.019     -0.043     +0.025
      -0.080     -0.187     +0.125
      +0.061     -0.124     -0.259
      +0.025     -0.021     -0.050
      +0.027     -0.026     -0.075
vibration  4
      +0.145     +0.027     -0.096
      +0.089     +0.241     -0.038
      -0.035     +0.065     +0.081
      +0.025     -0.006     -0.009
      -0.018     +0.078     +0.029
      -0.069     -0.014     +0.077
      +0.028     -0.046     -0.010
      +0.074     +0.100     -0.060
      -0.006     +0.130     +0.023
      -0.043     -0.114     -0.008
      +0.013     -0.040     -0.024
      -0.059     -0.017     +0.028
      -0.566     +0.008     +0.204
      -0.211     -0.106     +0.015
      -0.037     +0.012     +0.038
      +0.205     +0.094     +0.066
      +0.048     +0.017     +0.006
      +0.048     +0.013     -0.014
      +0.047     -0.403     -0.247
      +0.097     -0.170     -0.143
      +0.017     -0.045     -0.038
      +0.088     +0.028     +0.097
      +0.020     +0.018     +0.013
      +0.027     -0.016     +0.032
      +0.071     +0.105     -0.039
      +0.006     +0.016     -0.009
      +0.019     +0.035     -0.010
vibration  5
      +0.067     -0.051     -0.308
      +0.068     -0.289     +0.050
      -0.188     -0.039     +0.002
      +0.015     -0.006     -0.030
      -0.055     -0.078     +0.089
      +0.004     +0.028     -0.112
      -0.170     +0.071     +0.014
      -0.026     -0.119     +0.121
      +0.120     -0.159     -0.001
      -0.157     -0.053     -0.184
      -0.015     +0.007     -0.097
      -0.013     +0.003     +0.002
      +0.195     +0.203     +0.179
      +0.068     +0.082     +0.044
      +0.043     +0.079     +0.036
      +0.121     +0.401     -0.002
      +0.021     +0.071     -0.003
      +0.005     +0.093     -0.058
      -0.090     -0.049     -0.076
      +0.030     -0.057     -0.039
      -0.027     -0.009     -0.016
      -0.017     -0.197     +0.353
      -0.002     -0.031     +0.052
      +0.023     -0.146     +0.124
      -0.018     +0.056     -0.031
      -0.020     +0.001     -0.025
      +0.004     +0.064     -0.005
vibration  6
      -0.071     +0.108     +0.158
      -0.018     -0.195     +0.110
      +0.160     -0.043     -0.010
      -0.032     +0.028     +0.005
      +0.058     -0.104     -0.009
      +0.134     +0.035     -0.057
      -0.010     +0.064     +0.032
      -0.068     -0.094     +0.081
      +0.038     -0.122     -0.001
      +0.278     +0.250     -0.118
      +0.033     +0.062     +0.021
      +0.034     +0.060     -0.023
      -0.356     +0.362     -0.052
      -0.160     -0.025     -0.016
      -0.031     +0.079     -0.006
      +0.142     +0.142     +0.008
      +0.036     +0.023     +0.039
      +0.015     +0.047     -0.009
      +0.072     -0.063     +0.135
      +0.042     -0.039     +0.061
      +0.014     -0.060     +0.015
      -0.202     -0.201     -0.195
      -0.039     -0.086     -0.031
      -0.059     -0.013     -0.062
      +0.003     -0.329     -0.024
      +0.048     -0.016     -0.033
      -0.007     -0.088     +0.001
vibration  7
      -0.307     -0.023     +0.185
      -0.235     -0.190     +0.036
      -0.063     -0.075     -0.069
      -0.066     +0.009     +0.038
      -0.011     -0.071     -0.040
      +0.030     +0.004     -0.050
      -0.037     +0.026     +0.009
      -0.107     -0.078     +0.036
      -0.059     -0.098     -0.019
      -0.104     -0.019     +0.053
      -0.043     +0.001     +0.029
      -0.032     +0.001     +0.029
      +0.042     +0.008     +0.113
      +0.002     -0.002     -0.026
      +0.060     -0.017     +0.035
      +0.364     -0.168     +0.194
      +0.089     -0.047     +0.024
      +0.062     -0.031     +0.029
      +0.439     +0.035     -0.243
      +0.068     +0.045     -0.036
      +0.074     +0.026     -0.052
      -0.110     +0.143     +0.014
      -0.020     +0.055     -0.039
      -0.062     +0.025     -0.010
      -0.042     +0.271     -0.252
      -0.023     +0.033     -0.038
      -0.020     +0.046     -0.059
vibration  8
      -0.188     +0.135     -0.356
      -0.152     -0.082     -0.160
      -0.332     -0.097     -0.115
      -0.035     +0.057     -0.043
      -0.097     -0.082     +0.042
      -0.054     -0.004     -0.076
      -0.186     -0.002     -0.052
      -0.076     -0.044     -0.016
      +0.014     -0.043     -0.036
      +0.389     +0.086     +0.147
      +0.060     +0.016     +0.104
      +0.061     +0.016     -0.004
      -0.102     -0.123     -0.012
      -0.052     -0.082     +0.027
      -0.024     -0.040     -0.009
      -0.061     -0.061     +0.039
      -0.019     -0.022     +0.020
      -0.037     -0.011     +0.001
      +0.039     -0.021     +0.089
      +0.003     +0.003     -0.008
      +0.057     -0.001     +0.021
      -0.019     +0.224     +0.104
      +0.017     +0.019     +0.030
      +0.017     +0.003     +0.049
      +0.398     -0.023     +0.193
      +0.117     -0.007     +0.029
      +0.086     -0.018     +0.060
vibration  9
      -0.007     +0.352     +0.054
      +0.046     -0.047     +0.126
      +0.210     +0.005     +0.064
      -0.005     +0.089     +0.005
      +0.077     -0.151     +0.041
      +0.200     +0.073     -0.038
      -0.051     +0.088     +0.037
      -0.065     -0.059     +0.079
      +0.081     -0.073     +0.019
      -0.036     -0.223     +0.249
      -0.009     -0.050     +0.055
      -0.009     -0.070     +0.031
      -0.074     -0.399     -0.030
      -0.011     -0.088     -0.011
      +0.009     -0.040     -0.038
      +0.117     +0.187     -0.477
      +0.029     +0.025     -0.073
      +0.005     +0.060     -0.133
      -0.041     +0.026     -0.011
      +0.005     -0.007     -0.001
      -0.029     +0.009     +0.000
      -0.197     +0.123     +0.085
      -0.022     +0.012     +0.005
      -0.058     -0.012     +0.028
      -0.022     +0.025     -0.035
      -0.012     -0.024     +0.032
      +0.017     +0.000     -0.033
vibration  10
      -0.180     -0.025     +0.241
      -0.143     +0.009     +0.042
      +0.109     +0.007     -0.024
      -0.003     +0.009     +0.048
      +0.037     +0.013     -0.078
      +0.028     -0.003     +0.027
      +0.093     -0.004     +0.015
      -0.046     +0.003     -0.013
      -0.079     +0.003     -0.004
      -0.035     -0.376     -0.542
      +0.024     -0.075     -0.212
      +0.003     -0.071     -0.042
      +0.022     +0.100     +0.035
      -0.001     +0.012     +0.027
      -0.005     +0.052     +0.010
      -0.046     +0.063     -0.058
      -0.013     -0.001     +0.018
      -0.027     +0.027     -0.021
      -0.076     -0.042     +0.113
      -0.002     -0.022     -0.021
      +0.039     -0.009     +0.029
      -0.012     +0.365     +0.136
      +0.041     +0.061     +0.031
      -0.036     +0.071     +0.025
      +0.328     -0.099     +0.092
      +0.020     -0.032     -0.028
      +0.042     -0.041     +0.060
vibration  11
      +0.215     +0.146     -0.233
      +0.219     +0.041     +0.029
      +0.126     +0.010     +0.079
      +0.097     +0.029     -0.022
      +0.052     -0.214     +0.138
      +0.226     +0.102     -0.062
      -0.180     +0.100     +0.004
      +0.023     -0.012     +0.041
      +0.128     -0.012     +0.017
      -0.050     +0.013     -0.210
      -0.005     +0.011     -0.070
      -0.000     +0.024     -0.040
      -0.013     -0.049     +0.011
      -0.009     -0.026     +0.025
      -0.025     -0.051     +0.007
      -0.196     -0.256     +0.346
      -0.053     -0.037     +0.024
      -0.027     -0.076     +0.115
      +0.138     -0.007     -0.092
      -0.009     +0.035     +0.015
      +0.032     -0.013     -0.033
      -0.199     +0.314     +0.087
      -0.021     +0.086     +0.018
      -0.065     +0.021     +0.030
      -0.197     -0.165     -0.052
      -0.060     +0.011     -0.016
      -0.093     -0.136     +0.009
vibration  12
      +0.006     +0.003     -0.015
      +0.008     +0.003     -0.007
      -0.006     -0.004     -0.002
      +0.004     -0.000     -0.003
      -0.001     -0.018     +0.011
      +0.013     +0.007     -0.007
      -0.020     +0.005     -0.004
      +0.000     -0.000     -0.002
      +0.003     +0.001     -0.002
      +0.152     +0.122     -0.224
      +0.020     +0.006     -0.010
      +0.022     +0.055     -0.097
      +0.002     -0.283     -0.040
      -0.028     -0.126     +0.015
      +0.031     -0.096     -0.042
      +0.376     -0.033     +0.237
      +0.108     -0.038     +0.111
      +0.038     +0.006     +0.005
      -0.456     -0.041     +0.361
      -0.098     -0.025     +0.059
      -0.114     -0.026     +0.106
      +0.016     +0.052     -0.007
      +0.001     +0.028     -0.011
      -0.002     +0.013     -0.005
      -0.092     +0.186     -0.290
      -0.066     +0.076     -0.027
      +0.067     +0.114     -0.151
vibration  13
      +0.069     +0.126     -0.160
      +0.119     -0.273     +0.118
      +0.026     -0.005     +0.012
      +0.052     +0.044     -0.022
      -0.027     +0.443     -0.189
      -0.376     -0.194     +0.098
      +0.411     -0.151     +0.063
      -0.043     -0.129     +0.133
      +0.134     -0.166     +0.009
      +0.050     +0.065     -0.007
      +0.004     +0.017     +0.010
      +0.014     +0.021     -0.020
      -0.013     -0.092     +0.003
      -0.011     -0.040     +0.019
      -0.003     -0.022     -0.010
      -0.009     +0.031     +0.032
      -0.006     +0.004     -0.002
      -0.014     +0.008     +0.003
      +0.050     -0.001     -0.029
      +0.012     -0.001     +0.005
      +0.007     -0.007     -0.012
      -0.162     +0.236     +0.045
      -0.021     +0.057     +0.009
      -0.047     +0.017     +0.020
      -0.113     -0.082     -0.025
      -0.024     +0.011     +0.005
      -0.047     -0.085     -0.003
vibration  14
      -0.075     +0.282     -0.299
      -0.072     +0.045     +0.131
      +0.191     +0.068     +0.117
      -0.054     +0.078     -0.095
      +0.066     +0.032     -0.081
      +0.060     +0.017     +0.081
      +0.156     +0.021     +0.079
      -0.054     -0.010     +0.079
      +0.076     -0.021     +0.051
      -0.164     -0.144     -0.023
      -0.022     -0.015     -0.039
      -0.044     -0.035     +0.034
      -0.005     +0.116     -0.026
      +0.013     +0.065     -0.061
      +0.003     -0.008     +0.015
      -0.067     -0.222     +0.144
      -0.033     -0.095     +0.040
      -0.060     -0.025     +0.032
      +0.012     -0.095     +0.067
      -0.184     +0.136     +0.095
      -0.002     -0.014     +0.025
      -0.135     -0.276     -0.151
      -0.006     -0.137     -0.042
      +0.025     -0.199     +0.019
      +0.297     +0.232     +0.023
      +0.058     -0.021     -0.027
      +0.135     +0.261     -0.007
vibration  15
      -0.047     -0.031     -0.080
      -0.059     +0.012     +0.056
      +0.066     +0.026     +0.044
      -0.026     -0.013     -0.013
      +0.026     -0.012     -0.036
      +0.044     +0.018     +0.028
      +0.047     +0.019     +0.034
      -0.012     +0.005     +0.021
      -0.005     +0.002     +0.020
      +0.031     +0.049     -0.080
      +0.000     +0.004     +0.003
      +0.002     +0.016     -0.034
      +0.020     -0.147     -0.007
      +0.065     +0.046     +0.070
      -0.076     -0.014     -0.009
      -0.289     +0.031     +0.013
      -0.026     +0.125     +0.026
      +0.009     -0.042     +0.019
      +0.172     +0.031     +0.292
      +0.570     -0.433     -0.268
      +0.068     +0.090     +0.105
      -0.072     -0.111     -0.044
      -0.015     -0.005     -0.052
      -0.036     -0.056     -0.013
      +0.024     +0.184     -0.141
      -0.011     +0.035     -0.034
      -0.004     +0.052     -0.023
vibration  16
      -0.136     -0.043     -0.190
      -0.160     +0.043     +0.120
      +0.133     +0.060     +0.095
      -0.049     -0.014     -0.033
      +0.056     -0.031     -0.088
      +0.100     +0.043     +0.066
      +0.104     +0.041     +0.075
      -0.035     +0.018     +0.040
      -0.026     +0.013     +0.043
      -0.079     +0.071     -0.030
      -0.024     +0.016     +0.009
      +0.001     +0.012     -0.044
      +0.017     -0.115     -0.121
      -0.048     -0.114     -0.039
      +0.041     -0.061     -0.033
      +0.283     -0.015     +0.182
      +0.076     +0.027     +0.018
      +0.066     -0.014     +0.012
      -0.272     +0.329     -0.296
      +0.124     -0.071     -0.304
      +0.057     +0.119     -0.062
      +0.066     -0.095     -0.014
      -0.010     -0.003     +0.016
      +0.062     -0.029     +0.018
      +0.050     -0.158     +0.308
      +0.004     -0.033     +0.024
      -0.120     -0.167     +0.186
vibration  17
      +0.217     +0.083     +0.196
      +0.273     -0.065     -0.133
      -0.130     -0.068     -0.092
      +0.043     +0.017     +0.038
      -0.061     +0.053     +0.125
      -0.128     -0.057     -0.082
      -0.118     -0.050     -0.086
      +0.053     -0.034     -0.029
      +0.074     -0.032     -0.050
      -0.116     -0.205     +0.167
      -0.007     -0.044     -0.001
      -0.040     -0.059     +0.069
      -0.011     +0.247     -0.133
      +0.008     +0.103     -0.132
      +0.023     +0.014     -0.002
      +0.163     -0.207     +0.057
      +0.054     -0.004     +0.025
      +0.073     -0.049     +0.048
      -0.259     +0.167     +0.040
      +0.134     -0.117     -0.238
      +0.027     +0.113     +0.037
      -0.329     +0.037     -0.070
      -0.021     -0.037     -0.056
      -0.172     +0.002     -0.056
      +0.203     +0.045     +0.028
      +0.048     -0.038     +0.009
      +0.040     +0.020     +0.022
vibration  18
      +0.003     +0.556     +0.302
      +0.033     -0.017     -0.106
      -0.134     -0.069     -0.102
      +0.016     +0.152     +0.060
      -0.058     +0.051     +0.073
      -0.120     -0.056     -0.049
      -0.082     -0.055     -0.075
      -0.065     -0.047     -0.010
      +0.063     -0.048     -0.044
      -0.101     +0.017     -0.239
      -0.075     +0.034     -0.007
      +0.014     +0.004     -0.073
      +0.020     -0.206     -0.048
      -0.038     -0.136     +0.049
      -0.002     -0.040     -0.026
      -0.085     +0.021     +0.163
      -0.019     +0.022     +0.007
      -0.009     +0.014     +0.073
      +0.086     +0.062     -0.122
      +0.079     -0.037     -0.007
      -0.009     -0.011     -0.037
      +0.251     -0.265     +0.027
      +0.055     -0.118     +0.085
      +0.088     +0.096     -0.024
      -0.038     -0.107     +0.098
      -0.057     -0.024     -0.036
      +0.027     +0.186     +0.039
vibration  19
      +0.037     -0.165     -0.148
      +0.033     -0.007     +0.025
      +0.043     +0.022     +0.035
      -0.026     -0.064     +0.140
      +0.016     -0.004     -0.011
      +0.028     +0.014     +0.010
      +0.023     +0.016     +0.022
      +0.027     +0.007     +0.012
      +0.008     +0.005     +0.013
      +0.011     +0.058     -0.069
      +0.015     +0.019     -0.032
      +0.008     +0.019     -0.010
      +0.010     -0.086     +0.064
      -0.004     -0.037     +0.040
      -0.005     -0.014     +0.011
      +0.001     +0.027     -0.017
      +0.005     +0.028     -0.029
      +0.022     -0.018     -0.024
      +0.041     +0.030     -0.091
      -0.009     +0.019     +0.046
      -0.039     -0.013     -0.025
      -0.225     -0.151     +0.065
      -0.088     -0.098     +0.160
      -0.225     +0.729     -0.250
      +0.082     +0.052     +0.129
      +0.026     +0.020     +0.010
      +0.130     +0.249     -0.023
vibration  20
      +0.070     -0.131     +0.110
      +0.087     -0.017     -0.018
      -0.009     -0.007     -0.016
      +0.003     -0.038     -0.027
      -0.008     +0.007     +0.036
      -0.018     -0.008     -0.023
      -0.031     -0.006     -0.020
      +0.042     +0.006     -0.020
      -0.011     +0.009     -0.010
      -0.021     +0.110     -0.105
      +0.020     +0.047     -0.078
      +0.129     +0.011     -0.061
      +0.195     +0.016     +0.123
      -0.323     -0.637     +0.196
      +0.105     -0.010     +0.026
      -0.084     +0.011     -0.107
      -0.036     -0.030     -0.066
      -0.021     +0.006     -0.014
      +0.056     -0.018     -0.026
      -0.050     +0.056     -0.041
      +0.026     +0.055     +0.022
      -0.250     -0.030     -0.144
      -0.038     -0.001     -0.079
      -0.044     -0.214     +0.024
      +0.039     +0.240     +0.182
      -0.012     +0.019     +0.042
      -0.027     +0.022     +0.076
vibration  21
      -0.076     +0.119     -0.180
      -0.106     +0.018     +0.022
      +0.015     +0.012     +0.021
      +0.004     +0.039     +0.013
      +0.012     -0.012     -0.048
      +0.028     +0.012     +0.030
      +0.041     +0.010     +0.028
      -0.047     -0.005     +0.024
      +0.016     -0.008     +0.015
      -0.024     -0.189     +0.199
      -0.014     +0.013     -0.005
      +0.089     -0.054     +0.050
      +0.131     +0.410     -0.004
      -0.246     -0.352     +0.021
      +0.094     +0.029     +0.033
      -0.005     -0.237     -0.097
      -0.001     -0.027     -0.062
      +0.017     -0.063     -0.017
      -0.093     +0.070     +0.101
      +0.151     -0.138     +0.005
      -0.090     -0.002     +0.011
      +0.261     +0.077     +0.149
      +0.050     -0.004     +0.078
      +0.058     +0.177     -0.005
      -0.177     -0.185     -0.209
      -0.011     -0.076     +0.013
      +0.102     +0.096     -0.172
vibration  22
      -0.003     +0.200     -0.051
      -0.010     +0.010     -0.017
      -0.008     -0.006     -0.009
      -0.027     +0.029     +0.077
      -0.004     +0.010     +0.003
      -0.013     -0.007     +0.002
      +0.000     -0.008     -0.006
      -0.029     -0.013     +0.013
      +0.039     -0.016     -0.002
      +0.004     +0.001     -0.037
      -0.011     +0.040     -0.026
      +0.012     +0.013     +0.037
      +0.013     +0.055     +0.155
      -0.014     -0.011     +0.029
      +0.012     +0.004     +0.042
      -0.022     -0.121     -0.122
      -0.026     -0.110     +0.043
      -0.078     +0.007     -0.061
      -0.044     -0.088     +0.160
      -0.158     +0.128     -0.201
      +0.202     +0.104     +0.085
      +0.151     -0.258     +0.115
      -0.015     +0.088     -0.090
      -0.142     +0.237     -0.131
      +0.062     +0.204     -0.181
      -0.003     +0.025     -0.048
      -0.319     -0.508     +0.166
vibration  23
      -0.003     +0.081     +0.012
      +0.011     +0.003     -0.008
      -0.006     -0.007     -0.012
      +0.001     +0.024     -0.034
      -0.004     +0.006     +0.006
      -0.011     -0.006     -0.004
      -0.005     -0.006     -0.008
      -0.011     -0.007     +0.002
      +0.014     -0.008     -0.005
      +0.113     +0.198     -0.187
      +0.053     +0.096     -0.120
      +0.009     +0.087     +0.092
      -0.043     -0.005     +0.541
      +0.115     +0.212     +0.091
      -0.037     -0.020     +0.141
      +0.089     -0.418     -0.344
      +0.036     -0.047     -0.081
      +0.050     -0.137     -0.140
      -0.123     +0.118     -0.069
      +0.059     -0.049     -0.047
      -0.063     +0.031     -0.012
      -0.022     +0.017     -0.053
      -0.016     -0.026     +0.048
      +0.103     -0.089     +0.059
      -0.099     -0.049     +0.122
      -0.007     +0.045     -0.002
      +0.041     +0.136     -0.002
vibration  24
      -0.016     -0.078     -0.040
      +0.024     -0.001     +0.002
      +0.010     +0.019     +0.030
      +0.042     +0.009     +0.139
      +0.005     +0.001     -0.002
      +0.011     +0.011     +0.001
      +0.007     +0.013     +0.016
      +0.020     +0.010     -0.020
      -0.024     +0.023     +0.007
      -0.278     +0.275     +0.043
      -0.195     +0.129     +0.134
      -0.038     +0.062     -0.003
      +0.005     -0.085     +0.106
      -0.007     -0.031     -0.003
      +0.031     -0.022     +0.017
      +0.007     +0.037     -0.064
      -0.020     -0.063     +0.014
      -0.049     +0.034     -0.018
      +0.022     -0.050     +0.087
      -0.092     +0.093     -0.203
      +0.133     +0.112     +0.069
      +0.118     +0.149     +0.059
      +0.248     -0.080     -0.187
      -0.347     -0.139     -0.113
      +0.182     -0.350     -0.155
      -0.054     -0.100     -0.153
      +0.047     +0.281     +0.050
vibration  25
      -0.004     +0.040     -0.022
      -0.003     -0.001     -0.004
      +0.001     +0.000     +0.006
      -0.019     +0.004     +0.103
      +0.000     +0.002     +0.002
      -0.001     -0.001     +0.001
      +0.002     +0.001     +0.003
      -0.010     -0.007     +0.009
      +0.018     -0.009     +0.000
      -0.202     +0.126     +0.014
      -0.058     +0.066     -0.011
      -0.005     +0.031     +0.005
      +0.021     -0.021     +0.033
      -0.003     -0.030     +0.067
      -0.040     -0.021     +0.016
      +0.006     -0.075     -0.008
      +0.051     +0.149     -0.062
      +0.139     -0.102     +0.002
      -0.114     +0.060     -0.082
      +0.177     -0.213     +0.510
      -0.206     -0.352     -0.180
      +0.076     -0.006     +0.022
      +0.103     +0.036     -0.188
      -0.267     -0.074     -0.108
      +0.253     +0.077     -0.012
      +0.028     -0.011     +0.005
      -0.046     -0.267     +0.040
vibration  26
      +0.001     +0.063     -0.057
      -0.067     +0.012     +0.013
      -0.023     -0.013     -0.025
      +0.009     +0.003     +0.121
      -0.002     -0.017     -0.036
      +0.010     +0.003     +0.009
      +0.011     -0.003     +0.001
      -0.033     -0.005     +0.020
      +0.010     -0.012     +0.003
      +0.197     -0.166     -0.020
      +0.128     -0.032     -0.126
      +0.124     -0.049     -0.036
      -0.038     +0.054     -0.129
      +0.070     +0.082     +0.288
      -0.205     +0.068     -0.040
      +0.051     -0.018     +0.040
      +0.039     +0.054     +0.057
      +0.036     -0.041     -0.045
      +0.045     -0.027     -0.070
      -0.059     +0.063     -0.083
      -0.075     +0.150     +0.057
      +0.133     -0.044     +0.041
      +0.185     +0.043     -0.280
      -0.427     -0.150     -0.167
      -0.295     +0.097     +0.262
      -0.019     -0.026     +0.190
      +0.139     +0.034     -0.154
vibration  27
      +0.009     +0.017     -0.014
      -0.048     +0.007     +0.013
      -0.018     -0.012     -0.023
      +0.011     -0.004     +0.054
      -0.002     -0.013     -0.025
      +0.006     +0.001     +0.005
      +0.006     -0.003     -0.001
      -0.016     -0.001     +0.013
      +0.001     -0.006     +0.003
      +0.144     -0.019     -0.094
      +0.105     -0.022     -0.100
      -0.091     +0.045     +0.119
      -0.014     -0.065     +0.136
      -0.083     -0.010     -0.675
      +0.397     -0.132     +0.068
      -0.089     +0.081     +0.043
      -0.089     -0.081     -0.228
      -0.036     +0.062     +0.095
      +0.024     +0.023     +0.010
      +0.049     -0.033     +0.020
      -0.088     +0.054     +0.023
      +0.063     -0.040     +0.016
      +0.078     +0.032     -0.134
      -0.203     -0.067     -0.083
      -0.118     +0.048     +0.125
      +0.030     +0.050     +0.076
      +0.070     -0.034     -0.084
vibration  28
      +0.026     +0.022     +0.055
      -0.027     +0.011     +0.028
      -0.017     -0.022     -0.050
      -0.002     -0.007     -0.025
      -0.005     -0.008     -0.015
      -0.005     -0.007     -0.008
      -0.006     -0.010     -0.018
      -0.006     +0.003     +0.011
      -0.004     -0.003     +0.003
      -0.325     +0.223     +0.085
      +0.160     +0.123     -0.373
      +0.048     +0.081     +0.105
      -0.012     -0.097     -0.032
      +0.006     -0.018     +0.024
      -0.046     -0.061     +0.020
      -0.011     +0.039     +0.060
      -0.005     -0.022     +0.057
      -0.071     +0.000     -0.113
      +0.055     -0.021     +0.016
      -0.022     +0.036     -0.107
      -0.003     +0.096     +0.051
      -0.009     -0.031     +0.001
      -0.074     +0.049     +0.037
      +0.113     +0.037     +0.041
      +0.168     -0.123     -0.048
      +0.131     +0.006     +0.252
      +0.373     -0.302     -0.413
vibration  29
      +0.020     +0.096     -0.031
      +0.012     -0.205     +0.121
      +0.002     -0.149     +0.032
      +0.020     +0.040     +0.001
      -0.016     +0.162     -0.075
      -0.060     -0.017     -0.469
      +0.026     +0.330     +0.303
      +0.088     +0.039     -0.454
      -0.129     +0.350     +0.291
      +0.014     -0.021     +0.003
      +0.012     +0.024     -0.037
      +0.019     +0.004     +0.025
      -0.002     +0.000     -0.013
      -0.000     +0.002     -0.010
      -0.006     -0.015     +0.006
      +0.000     -0.006     +0.017
      -0.004     -0.020     +0.029
      -0.041     +0.005     -0.045
      -0.001     +0.010     -0.008
      +0.015     -0.013     +0.013
      +0.001     -0.018     -0.010
      -0.003     -0.003     +0.001
      +0.006     -0.010     +0.001
      -0.006     +0.002     -0.003
      -0.016     +0.014     +0.005
      -0.002     -0.001     +0.001
      -0.013     -0.002     +0.009
vibration  30
      +0.086     -0.028     +0.031