[Molden Format]
[FR-COORD] # Coordinates in bohr
  O    -2.027741    -1.097274    -0.480560 
  C    -4.672435    -1.561619    -0.735777 
  C    -5.659536    -3.258411    +1.393325 
  H    -0.806207    -2.561990    -0.547889 
  H    -7.684010    -3.522982    +1.230766 
  H    -5.245902    -2.408048    +3.208107 
  H    -4.757275    -5.098059    +1.321125 
  H    -5.086902    -2.419075    -2.552207 
  H    -5.617720    +0.247126    -0.677221 
  O    +0.372570    +1.159654    +3.177893 
  H    -0.924825    +0.303405    +2.136175 
  H    +0.351909    +2.981599    +2.480930 
  O    +0.270612    +5.130557    +1.009498 
  H    -1.319638    +6.061083    +1.233235 
  H    +0.119761    +4.319772    -0.771718 
  O    +0.005136    +2.757064    -2.815831 
  H    +1.780270    +2.133605    -3.023585 
  H    -0.912479    +1.244247    -2.192730 
  O    +4.467054    +1.108042    -2.671516 
  H    +5.686818    +2.498779    -2.495831 
  H    +4.474893    +0.303541    -0.946596 
  O    +1.288899    -4.220152    -0.376276 
  H    +2.565586    -3.068565    +0.489977 
  H    +2.043820    -4.527801    -2.045051 
  O    +3.867602    -0.926849    +1.531103 
  H    +2.333936    +0.103447    +2.461446 
  H    +5.178645    -1.269863    +2.791866 
[FREQ] # Frequencies in cm^-1
   41.3264
   61.0229
   81.4794
   95.0545
  102.7672
  131.0858
  135.1297
  154.6481
  174.0641
  192.9019
  225.5706
  257.3793
  292.3645
  383.1990
  440.4147
  456.5603
  487.5372
  504.7648
  526.9354
  555.1834
  569.1601
  594.3787
  620.9974
  734.7844
  756.4639
  793.6792
  812.2234
  860.2884
  898.5992
  935.4648
  948.7519
  997.6565
 1076.2624
 1137.9478
 1172.2717
 1224.5273
 1252.3314
 1295.9501
 1337.0032
 1417.8976
 1453.1468
 1479.9826
 1518.9483
 1543.8567
 1572.7422
 1660.7540
 1671.0488
 1680.4178
 1704.5185
 1763.2016
 1944.1560
 2161.9507
 2177.1227
 2200.6749
 2212.1561
 2238.4036
 2255.6354
 2452.0489
 2942.8700
 3174.5050
 3188.2596
 3200.7676
 3243.5343
 3266.1949
 3274.7634
 3566.5575
 3612.5406
 3858.6466
 3980.7185
 4095.3933
 4163.7680
 4327.6256
 4331.3837
 4336.3487
 4342.4144
[FR-NORM-COORD] # Displacements in bohr
vibration  1
      +0.069     -0.143     -0.164
      +0.057     -0.125     -0.103
      -0.059     +0.516     +0.352
      +0.024     -0.032     -0.037
      -0.017     +0.148     +0.102
      -0.032     +0.300     +0.035
      -0.027     +0.138     +0.267
      +0.028     -0.184     +0.037
      +0.030     -0.024     -0.190
      -0.095     -0.193     -0.069
      -0.007     -0.050     -0.038
      -0.035     -0.042     -0.000
      -0.204     -0.121     +0.065
      -0.064     -0.052     +0.012
      -0.029     -0.018     +0.009
      +0.019     -0.018     -0.018
      +0.013     +0.016     +0.007
      +0.015     -0.018     -0.024
      +0.087     +0.183     +0.093
      +0.001     +0.060     +0.056
      +0.013     +0.023     +0.013
      +0.129     -0.061     -0.137
      +0.022     -0.010     -0.025
      +0.040     -0.005     -0.033
      +0.009     -0.039     -0.029
      -0.012     -0.026     -0.009
      -0.004     -0.012     -0.001
vibration  2
      +0.067     -0.087     +0.135
      +0.084     -0.024     -0.251
      -0.304     +0.163     -0.285
      +0.013     -0.024     +0.064
      -0.083     +0.063     -0.171
      -0.164     +0.082     -0.082
      -0.102     +0.038     -0.002
      +0.098     -0.041     -0.074
      +0.037     +0.002     -0.154
      +0.263     +0.021     +0.146
      +0.039     -0.006     +0.084
      +0.034     +0.006     +0.025
      -0.037     -0.050     +0.116
      -0.016     -0.030     +0.054
      -0.027     -0.020     +0.029
      -0.185     -0.061     +0.174
      -0.045     +0.007     -0.002
      -0.012     -0.029     +0.064
      -0.135     +0.052     -0.253
      -0.033     +0.015     -0.084
      -0.004     +0.015     -0.063
      +0.059     -0.116     +0.372
      +0.031     -0.003     +0.033
      -0.010     -0.092     +0.094
      +0.187     +0.108     -0.160
      +0.059     +0.016     -0.013
      +0.077     +0.053     -0.064
vibration  3
      +0.007     -0.064     +0.100
      -0.047     +0.210     +0.174
      -0.083     -0.033     -0.035
      -0.024     -0.041     +0.032
      -0.035     +0.059     +0.015
      +0.035     -0.107     +0.022
      -0.082     -0.034     -0.113
      -0.066     +0.154     +0.019
      +0.033     +0.082     +0.148
      +0.119     -0.071     -0.144
      +0.025     -0.024     -0.028
      +0.011     -0.018     -0.035
      -0.151     -0.074     -0.150
      -0.057     -0.053     -0.033
      -0.026     -0.023     -0.036
      +0.052     -0.138     -0.122
      +0.033     +0.009     -0.003
      +0.037     -0.045     -0.022
      +0.265     +0.533     +0.174
      -0.024     +0.197     +0.171
      +0.038     +0.045     +0.003
      -0.168     -0.194     +0.201
      -0.018     -0.032     -0.002
      -0.069     -0.114     +0.050
      +0.031     -0.142     -0.202
      +0.015     -0.019     -0.042
      +0.007     -0.049     -0.053
vibration  4
      +0.002     -0.049     +0.290
      -0.022     +0.192     +0.121
      -0.265     +0.078     -0.086
      +0.016     -0.004     +0.013
      -0.083     +0.089     -0.055
      -0.071     -0.043     +0.004
      -0.132     -0.002     -0.069
      -0.008     +0.117     +0.007
      +0.036     +0.077     +0.074
      +0.060     +0.005     +0.132
      +0.016     -0.025     +0.051
      -0.010     -0.010     +0.005
      -0.203     -0.141     -0.128
      -0.072     -0.066     -0.051
      -0.026     -0.060     -0.024
      -0.014     -0.352     -0.001
      +0.001     -0.072     +0.003
      +0.010     -0.082     +0.041
      +0.110     -0.127     +0.012
      +0.009     -0.011     -0.028
      +0.039     +0.006     +0.020
      +0.247     +0.300     -0.411
      +0.042     +0.061     -0.048
      +0.049     +0.198     -0.131
      +0.087     +0.087     +0.107
      +0.016     +0.015     +0.032
      +0.009     -0.015     +0.030
vibration  5
      +0.140     +0.050     -0.089
      +0.076     +0.241     +0.090
      +0.151     +0.068     -0.014
      +0.017     -0.007     -0.008
      +0.033     +0.071     +0.046
      +0.115     -0.052     +0.013
      -0.000     +0.002     -0.093
      -0.039     +0.137     +0.009
      +0.057     +0.086     +0.109
      -0.048     -0.115     -0.071
      +0.013     -0.036     -0.046
      -0.057     -0.018     +0.019
      -0.582     +0.032     +0.188
      -0.217     -0.104     +0.009
      -0.040     +0.024     +0.033
      +0.210     +0.147     +0.027
      +0.050     +0.029     +0.006
      +0.046     +0.028     -0.029
      +0.043     -0.334     -0.217
      +0.092     -0.147     -0.117
      +0.009     -0.048     -0.037
      -0.012     -0.062     +0.172
      +0.002     -0.003     +0.022
      +0.002     -0.064     +0.055
      +0.029     +0.033     -0.065
      -0.001     +0.008     -0.018
      +0.010     +0.019     -0.016
vibration  6
      -0.248     -0.064     +0.145
      -0.184     -0.234     +0.028
      -0.221     -0.150     +0.088
      -0.054     -0.001     +0.029
      -0.055     -0.090     -0.016
      -0.125     +0.005     +0.017
      -0.024     -0.026     +0.087
      -0.010     -0.112     +0.019
      -0.085     -0.083     -0.044
      -0.124     -0.014     -0.074
      -0.039     +0.007     -0.021
      -0.034     +0.006     +0.021
      +0.026     +0.147     +0.150
      -0.010     +0.023     -0.019
      +0.065     +0.027     +0.043
      +0.422     -0.021     +0.170
      +0.102     -0.018     +0.026
      +0.072     +0.005     +0.008
      +0.408     +0.006     -0.230
      +0.088     +0.013     -0.044
      +0.068     +0.016     -0.049
      -0.065     +0.063     -0.000
      -0.013     +0.036     -0.037
      -0.044     +0.009     -0.012
      -0.034     +0.239     -0.238
      -0.023     +0.031     -0.050
      -0.019     +0.052     -0.051
vibration  7
      -0.095     +0.134     +0.058
      -0.027     -0.172     -0.095
      +0.006     -0.060     +0.010
      -0.034     +0.041     -0.002
      +0.017     -0.108     -0.045
      -0.085     +0.062     -0.014
      +0.081     +0.018     +0.091
      +0.055     -0.117     -0.011
      -0.061     -0.076     -0.101
      +0.427     +0.324     +0.021
      +0.051     +0.071     +0.092
      +0.060     +0.073     -0.019
      -0.357     +0.277     -0.069
      -0.160     -0.053     -0.009
      -0.046     +0.046     -0.011
      +0.042     +0.041     +0.058
      +0.012     +0.005     +0.044
      -0.003     +0.020     +0.018
      +0.053     -0.062     +0.165
      +0.026     -0.029     +0.060
      +0.027     -0.055     +0.021
      -0.162     -0.116     -0.212
      -0.027     -0.075     -0.028
      -0.044     +0.011     -0.063
      +0.116     -0.329     +0.045
      +0.087     -0.013     -0.013
      +0.020     -0.096     +0.017
vibration  8
      -0.192     +0.330     -0.201
      -0.123     -0.010     -0.106
      +0.178     -0.018     +0.029
      -0.040     +0.092     -0.015
      +0.065     -0.115     +0.023
      +0.015     +0.055     -0.011
      +0.148     +0.040     +0.045
      -0.022     -0.048     -0.013
      -0.097     -0.034     -0.052
      +0.136     -0.106     +0.350
      +0.004     -0.029     +0.136
      +0.013     -0.037     +0.027
      -0.076     -0.462     -0.031
      -0.022     -0.123     -0.005
      -0.001     -0.100     -0.028
      +0.044     -0.108     -0.161
      +0.009     -0.032     -0.034
      -0.012     -0.018     -0.043
      +0.127     +0.044     -0.062
      +0.001     +0.038     -0.010
      +0.031     +0.023     -0.011
      -0.226     +0.288     +0.143
      -0.024     +0.053     +0.011
      -0.059     +0.001     +0.048
      +0.118     +0.102     +0.005
      +0.035     -0.007     +0.036
      +0.033     -0.008     -0.011
vibration  9
      -0.211     -0.027     -0.097
      -0.194     -0.041     +0.014
      -0.177     -0.053     +0.020
      -0.018     +0.016     -0.005
      -0.055     +0.004     +0.018
      -0.031     -0.027     +0.007
      -0.069     -0.023     -0.009
      -0.071     -0.008     +0.006
      -0.056     -0.012     +0.015
      +0.113     -0.264     -0.439
      +0.050     -0.050     -0.157
      +0.027     -0.051     -0.042
      +0.014     +0.073     +0.040
      -0.007     -0.007     +0.039
      -0.010     +0.044     +0.008
      -0.056     +0.132     -0.068
      -0.018     +0.008     +0.019
      -0.042     +0.042     -0.043
      -0.094     -0.060     +0.146
      +0.004     -0.031     -0.032
      +0.050     -0.007     +0.039
      +0.067     +0.321     +0.181
      +0.053     +0.042     +0.047
      +0.019     +0.032     +0.056
      +0.491     -0.073     +0.197
      +0.076     -0.031     -0.012
      +0.086     -0.018     +0.088
vibration  10
      -0.067     -0.120     -0.432
      -0.100     +0.055     -0.091
      +0.145     +0.048     +0.014
      +0.001     -0.031     -0.056
      +0.020     +0.099     +0.144
      +0.207     -0.035     -0.010
      -0.037     -0.021     -0.093
      -0.114     +0.038     -0.017
      -0.001     +0.029     +0.028
      +0.052     +0.193     -0.110
      +0.002     +0.045     -0.001
      +0.009     +0.064     -0.028
      +0.033     +0.106     +0.033
      +0.001     +0.012     +0.020
      -0.020     -0.045     +0.026
      -0.176     -0.384     +0.531
      -0.049     -0.065     +0.063
      -0.030     -0.110     +0.146
      +0.163     -0.000     -0.070
      -0.015     +0.047     +0.003
      +0.056     +0.001     -0.022
      -0.039     +0.116     +0.034
      -0.012     +0.042     +0.009
      +0.007     -0.010     +0.024
      -0.004     -0.011     +0.019
      +0.007     +0.025     -0.017
      -0.038     -0.046     +0.031
vibration  11
      +0.176     +0.131     +0.290
      +0.223     +0.048     -0.008
      +0.172     +0.029     -0.061
      +0.091     +0.027     +0.061
      +0.091     -0.204     -0.176
      -0.185     +0.113     -0.013
      +0.244     +0.098     +0.123
      +0.138     -0.014     -0.006
      +0.023     -0.006     -0.051
      -0.106     -0.147     -0.345
      -0.011     -0.022     -0.131
      -0.008     -0.018     -0.038
      -0.013     +0.005     +0.006
      -0.009     -0.011     +0.014
      -0.015     -0.011     +0.005
      -0.123     -0.178     +0.168
      -0.031     -0.025     +0.015
      -0.007     -0.046     +0.082
      +0.046     -0.011     -0.030
      -0.013     +0.016     +0.015
      +0.014     -0.016     -0.015
      -0.184     +0.335     +0.100
      -0.005     +0.083     +0.018
      -0.101     +0.075     +0.004
      -0.155     -0.179     -0.097
      -0.073     -0.003     -0.026
      -0.074     -0.125     -0.011
vibration  12
      +0.009     +0.001     +0.018
      +0.005     +0.004     +0.009
      -0.006     -0.000     -0.001
      +0.000     +0.000     +0.003
      -0.000     -0.005     -0.009
      -0.011     +0.001     +0.001
      +0.003     +0.002     +0.004
      +0.004     +0.003     +0.001
      +0.004     +0.002     +0.003
      -0.152     -0.131     +0.216
      -0.020     -0.007     +0.008
      -0.021     -0.059     +0.094
      -0.005     +0.279     +0.051
      +0.027     +0.126     -0.010
      -0.032     +0.093     +0.046
      -0.381     +0.037     -0.230
      -0.110     +0.041     -0.109
      -0.037     -0.007     -0.003
      +0.455     +0.060     -0.362
      +0.098     +0.028     -0.057
      +0.113     +0.031     -0.106
      -0.015     -0.048     +0.008
      -0.001     -0.026     +0.011
      +0.002     -0.012     +0.004
      +0.086     -0.203     +0.279
      +0.064     -0.076     +0.024
      -0.068     -0.125     +0.145
vibration  13
      +0.058     +0.109     +0.247
      +0.158     -0.250     -0.136
      +0.020     -0.010     -0.005
      +0.050     +0.039     +0.057
      -0.065     +0.383     +0.254
      +0.399     -0.134     -0.030
      -0.347     -0.169     -0.176
      +0.152     -0.167     -0.020
      -0.022     -0.104     -0.162
      +0.027     -0.019     -0.027
      -0.004     +0.001     -0.004
      +0.012     -0.003     -0.005
      -0.015     -0.031     +0.005
      -0.010     -0.022     +0.010
      +0.001     +0.007     -0.005
      +0.011     +0.058     -0.063
      +0.003     +0.012     -0.012
      +0.005     +0.019     -0.002
      +0.019     +0.003     -0.015
      +0.016     -0.010     +0.002
      -0.000     -0.008     -0.009
      -0.152     +0.238     +0.055
      -0.012     +0.053     +0.009
      -0.084     +0.078     -0.009
      -0.108     -0.105     -0.051
      -0.030     -0.000     +0.002
      -0.041     -0.088     -0.015
vibration  14
      -0.137     +0.195     +0.286
      -0.074     +0.076     -0.163
      +0.236     +0.104     -0.082
      -0.069     +0.055     +0.025
      +0.062     +0.013     +0.109
      +0.187     +0.046     -0.059
      +0.086     +0.040     -0.072
      +0.069     -0.010     -0.051
      -0.046     +0.009     -0.094
      -0.170     -0.239     -0.015
      -0.033     -0.034     -0.036
      -0.046     -0.066     +0.057
      -0.007     +0.224     -0.014
      +0.012     +0.100     -0.073
      +0.010     +0.028     +0.025
      -0.019     -0.244     +0.037
      -0.013     -0.090     +0.028
      -0.024     -0.027     +0.039
      -0.049     -0.079     +0.095
      -0.164     +0.106     +0.082
      -0.012     -0.010     +0.034
      -0.102     -0.267     -0.133
      +0.007     -0.133     -0.046
      -0.036     -0.075     -0.038
      +0.296     +0.211     -0.013
      +0.053     -0.031     -0.030
      +0.140     +0.253     -0.016
vibration  15
      -0.031     -0.038     +0.073
      -0.025     +0.014     -0.035
      +0.049     +0.020     -0.016
      -0.021     -0.017     +0.020
      +0.015     -0.011     +0.024
      +0.035     +0.015     -0.014
      +0.030     +0.014     -0.011
      +0.005     +0.002     -0.012
      -0.004     +0.006     -0.015
      +0.032     +0.015     -0.062
      -0.001     -0.004     +0.004
      -0.001     +0.006     -0.021
      +0.018     -0.099     -0.007
      +0.068     +0.066     +0.064
      -0.076     -0.000     -0.004
      -0.292     +0.012     -0.018
      -0.025     +0.123     +0.029
      +0.017     -0.045     +0.022
      +0.166     +0.007     +0.322
      +0.573     -0.423     -0.278
      +0.062     +0.083     +0.116
      -0.084     -0.096     -0.037
      -0.012     -0.003     -0.053
      -0.067     -0.013     -0.033
      +0.022     +0.195     -0.168
      -0.011     +0.034     -0.034
      +0.007     +0.063     -0.040
vibration  16
      -0.120     -0.095     +0.156
      -0.103     +0.055     -0.097
      +0.120     +0.058     -0.043
      -0.045     -0.031     +0.048
      +0.037     -0.041     +0.071
      +0.091     +0.042     -0.037
      +0.088     +0.043     -0.032
      -0.014     +0.018     -0.033
      -0.018     +0.021     -0.029
      -0.083     -0.017     +0.026
      -0.029     -0.004     +0.018
      -0.006     -0.013     -0.015
      +0.014     +0.003     -0.134
      -0.040     -0.063     -0.070
      +0.043     -0.033     -0.028
      +0.315     -0.071     +0.120
      +0.094     +0.038     +0.016
      +0.103     -0.029     +0.025
      -0.341     +0.368     -0.223
      +0.194     -0.120     -0.364
      +0.053     +0.142     -0.037
      +0.030     -0.068     +0.012
      -0.008     -0.000     +0.013
      -0.021     +0.089     -0.031
      +0.064     -0.175     +0.241
      +0.008     -0.044     +0.021
      -0.107     -0.181     +0.154
vibration  17
      +0.273     +0.201     -0.247
      +0.278     -0.105     +0.188
      -0.181     -0.108     +0.082
      +0.060     +0.055     -0.092
      -0.058     +0.094     -0.145
      -0.162     -0.083     +0.073
      -0.169     -0.089     +0.063
      +0.063     -0.046     +0.065
      +0.050     -0.046     +0.043
      -0.120     -0.103     +0.088
      +0.005     -0.023     -0.022
      -0.034     -0.030     +0.029
      -0.009     +0.098     -0.123
      +0.003     +0.052     -0.094
      +0.015     -0.020     -0.015
      +0.087     -0.131     +0.132
      +0.022     -0.017     +0.033
      +0.017     -0.026     +0.036
      -0.147     +0.097     +0.009
      +0.056     -0.038     -0.172
      +0.038     +0.088     +0.030
      -0.354     +0.027     -0.149
      -0.022     -0.040     -0.087
      -0.063     -0.271     +0.028
      +0.212     +0.100     +0.098
      +0.045     -0.019     +0.009
      +0.032     +0.043     +0.053
vibration  18
      +0.057     -0.522     -0.086
      +0.051     +0.007     -0.057
      +0.082     +0.047     -0.036
      -0.000     -0.150     +0.031
      +0.030     -0.038     +0.012
      +0.023     +0.039     -0.022
      +0.068     +0.034     +0.006
      -0.067     +0.044     -0.019
      +0.076     +0.034     +0.031
      +0.094     -0.113     +0.282
      +0.064     -0.047     +0.015
      -0.019     -0.032     +0.099
      -0.026     +0.306     +0.048
      +0.040     +0.178     -0.071
      +0.006     +0.060     +0.035
      +0.108     -0.070     -0.199
      +0.031     -0.015     -0.016
      +0.040     -0.027     -0.058
      -0.126     -0.047     +0.146
      -0.049     +0.005     +0.010
      -0.018     +0.007     +0.041
      -0.283     +0.256     +0.049
      -0.058     +0.089     -0.031
      -0.192     +0.179     -0.062
      +0.044     +0.075     -0.144
      +0.061     +0.008     +0.032
      +0.033     -0.098     -0.093
vibration  19
      +0.091     -0.003     -0.117
      +0.091     -0.023     +0.045
      -0.029     -0.025     +0.019
      -0.008     -0.028     +0.132
      -0.009     +0.022     -0.044
      -0.044     -0.021     +0.020
      -0.037     -0.022     +0.017
      +0.007     -0.006     +0.017
      +0.027     -0.006     +0.019
      -0.026     +0.068     -0.118
      -0.001     +0.027     -0.037
      +0.009     +0.020     -0.028
      +0.017     -0.139     +0.031
      -0.016     -0.080     +0.044
      -0.003     -0.028     -0.000
      -0.020     +0.034     +0.041
      -0.001     +0.033     -0.024
      +0.017     -0.013     -0.002
      +0.059     +0.051     -0.121
      +0.005     +0.014     +0.038
      -0.038     -0.008     -0.032
      -0.216     -0.202     +0.033
      -0.074     -0.138     +0.158
      -0.212     +0.689     -0.206
      +0.095     +0.038     +0.174
      +0.016     +0.015     +0.005
      +0.140     +0.306     +0.005
vibration  20
      -0.020     +0.204     -0.089
      -0.032     -0.000     +0.018
      -0.042     -0.028     +0.027
      +0.012     +0.056     +0.025
      -0.014     +0.010     -0.009
      -0.023     -0.019     +0.015
      -0.030     -0.016     +0.004
      -0.002     -0.014     +0.011
      -0.031     -0.012     +0.001
      +0.004     -0.111     +0.078
      -0.025     -0.051     +0.075
      -0.133     -0.014     +0.052
      -0.200     -0.048     -0.148
      +0.324     +0.650     -0.176
      -0.108     +0.003     -0.033
      +0.077     +0.001     +0.144
      +0.035     +0.035     +0.071
      +0.022     -0.003     +0.029
      -0.043     +0.023     +0.006
      +0.055     -0.058     +0.043
      -0.030     -0.056     -0.029
      +0.218     +0.015     +0.121
      +0.041     -0.024     +0.082
      +0.043     +0.193     -0.012
      -0.020     -0.235     -0.160
      +0.010     -0.018     -0.044
      +0.048     +0.034     -0.071
vibration  21
      -0.017     +0.212     -0.150
      -0.042     -0.003     +0.017
      -0.050     -0.034     +0.032
      +0.027     +0.065     +0.008
      -0.016     +0.010     -0.014
      -0.030     -0.022     +0.019
      -0.034     -0.019     +0.007
      -0.011     -0.014     +0.012
      -0.034     -0.013     +0.002
      -0.045     -0.211     +0.183
      -0.023     +0.007     +0.003
      +0.081     -0.061     +0.039
      +0.119     +0.388     -0.039
      -0.234     -0.339     -0.008
      +0.089     +0.023     +0.020
      -0.008     -0.214     -0.052
      -0.000     -0.009     -0.060
      +0.025     -0.059     +0.004
      -0.081     +0.080     +0.078
      +0.177     -0.155     +0.016
      -0.112     -0.013     -0.000
      +0.238     +0.086     +0.132
      +0.061     -0.038     +0.091
      +0.070     +0.144     +0.015
      -0.169     -0.214     -0.190
      -0.014     -0.085     +0.008
      +0.150     +0.200     -0.181
vibration  22
      -0.021     -0.267     +0.127
      -0.007     +0.003     -0.031
      +0.037     +0.029     -0.024
      +0.016     -0.042     -0.075
      +0.013     -0.024     +0.032
      +0.035     +0.027     -0.021
      +0.042     +0.024     -0.006
      -0.018     +0.021     -0.016
      +0.026     +0.016     +0.005
      +0.012     +0.032     +0.006
      +0.015     -0.039     +0.022
      -0.015     -0.003     -0.042
      -0.019     -0.088     -0.125
      +0.030     +0.030     -0.013
      -0.019     -0.001     -0.038
      +0.024     +0.131     +0.104
      +0.027     +0.112     -0.039
      +0.081     -0.006     +0.058
      +0.048     +0.087     -0.166
      +0.140     -0.118     +0.192
      -0.190     -0.099     -0.088
      -0.177     +0.255     -0.120
      +0.008     -0.080     +0.072
      +0.143     -0.274     +0.122
      -0.051     -0.180     +0.200
      +0.002     -0.014     +0.048
      +0.291     +0.484     -0.122
vibration  23
      -0.001     +0.094     -0.020
      +0.010     -0.000     +0.011
      -0.010     -0.008     +0.004
      +0.001     +0.028     -0.034
      -0.003     +0.008     -0.011
      -0.009     -0.009     +0.005
      -0.012     -0.007     +0.000
      +0.015     -0.012     +0.006
      -0.012     -0.007     -0.009
      +0.109     +0.203     -0.175
      +0.051     +0.103     -0.117
      +0.009     +0.084     +0.098
      -0.039     -0.017     +0.543
      +0.111     +0.207     +0.097
      -0.035     -0.027     +0.142
      +0.091     -0.411     -0.363
      +0.035     -0.048     -0.082
      +0.046     -0.132     -0.151
      -0.127     +0.119     -0.057
      +0.058     -0.045     -0.056
      -0.059     +0.035     -0.008
      -0.015     +0.014     -0.046
      -0.016     -0.027     +0.048
      +0.101     -0.076     +0.051
      -0.097     -0.055     +0.109
      -0.006     +0.044     -0.002
      +0.035     +0.127     +0.004
vibration  24
      -0.012     -0.076     -0.015
      +0.027     +0.006     -0.000
      +0.009     +0.014     -0.008
      +0.043     +0.001     +0.141
      +0.003     -0.001     +0.002
      +0.002     +0.008     -0.004
      +0.006     +0.006     +0.005
      -0.036     +0.028     -0.003
      +0.021     +0.009     +0.033
      -0.278     +0.270     +0.054
      -0.192     +0.121     +0.137
      -0.038     +0.061     -0.000
      +0.006     -0.092     +0.100
      -0.006     -0.030     -0.003
      +0.031     -0.022     +0.015
      +0.006     +0.042     -0.061
      -0.019     -0.063     +0.012
      -0.048     +0.036     -0.013
      +0.025     -0.054     +0.084
      -0.095     +0.102     -0.201
      +0.132     +0.113     +0.074
      +0.118     +0.147     +0.066
      +0.250     -0.068     -0.194
      -0.351     -0.141     -0.119
      +0.180     -0.342     -0.166
      -0.054     -0.093     -0.154
      +0.047     +0.280     +0.059
vibration  25
      -0.004     -0.048     +0.029
      -0.001     -0.006     -0.001
      +0.005     +0.011     -0.013
      +0.017     +0.001     -0.104
      +0.001     -0.001     +0.006
      +0.008     +0.009     -0.008
      +0.007     +0.006     -0.001
      -0.003     +0.006     -0.004
      +0.004     +0.001     +0.005
      +0.204     -0.124     -0.021
      +0.056     -0.067     +0.012
      +0.004     -0.031     -0.008
      -0.020     +0.022     -0.032
      +0.003     +0.032     -0.064
      +0.040     +0.023     -0.015
      -0.006     +0.075     +0.011
      -0.050     -0.152     +0.057
      -0.140     +0.102     +0.003
      +0.115     -0.061     +0.079
      -0.180     +0.231     -0.499
      +0.204     +0.344     +0.192
      -0.079     +0.005     -0.022
      -0.105     -0.045     +0.188
      +0.270     +0.074     +0.112
      -0.251     -0.077     +0.009
      -0.029     +0.012     -0.006
      +0.040     +0.266     -0.026
vibration  26
      +0.000     -0.069     +0.057
      +0.061     -0.013     +0.022
      +0.022     +0.017     -0.016
      -0.009     +0.003     -0.119
      +0.006     +0.019     -0.019
      -0.003     +0.008     -0.004
      -0.005     -0.001     +0.009
      +0.004     +0.013     +0.001
      +0.027     +0.001     +0.022
      -0.207     +0.171     +0.032
      -0.126     +0.030     +0.122
      -0.124     +0.048     +0.041
      +0.039     -0.062     +0.126
      -0.071     -0.072     -0.291
      +0.205     -0.069     +0.037
      -0.052     +0.020     -0.038
      -0.039     -0.052     -0.058
      -0.037     +0.039     +0.045
      -0.044     +0.023     +0.072
      +0.060     -0.066     +0.081
      +0.076     -0.147     -0.064
      -0.132     +0.044     -0.038
      -0.181     -0.058     +0.277
      +0.421     +0.145     +0.170
      +0.301     -0.088     -0.270
      +0.020     +0.034     -0.188
      -0.134     -0.044     +0.149
vibration  27
      +0.005     +0.017     -0.015
      -0.045     +0.005     -0.016
      -0.016     -0.010     +0.008
      +0.010     -0.006     +0.053
      -0.004     -0.015     +0.017
      +0.006     -0.001     -0.001
      +0.007     +0.003     -0.005
      -0.000     -0.007     -0.003
      -0.014     +0.001     -0.014
      +0.150     -0.019     -0.098
      +0.102     -0.021     -0.095
      -0.091     +0.038     +0.118
      -0.013     -0.068     +0.134
      -0.085     +0.017     -0.674
      +0.399     -0.130     +0.061
      -0.089     +0.078     +0.045
      -0.089     -0.072     -0.233
      -0.034     +0.057     +0.101
      +0.024     +0.023     +0.010
      +0.049     -0.033     +0.018
      -0.088     +0.053     +0.026
      +0.063     -0.040     +0.014
      +0.076     +0.039     -0.133
      -0.202     -0.065     -0.084
      -0.123     +0.044     +0.129
      +0.028     +0.047     +0.077
      +0.067     -0.027     -0.082
vibration  28
      +0.003     +0.002     +0.040
      -0.034     +0.009     +0.017
      -0.007     +0.011     -0.008
      -0.008     -0.010     -0.025
      +0.001     -0.019     +0.002
      +0.009     -0.019     +0.004
      +0.018     +0.014     -0.038
      +0.035     -0.039     +0.014
      -0.015     +0.001     -0.051
      -0.317     +0.213     +0.092
      +0.160     +0.136     -0.368
      +0.048     +0.076     +0.107
      -0.012     -0.095     -0.036
      +0.006     -0.017     +0.017
      -0.043     -0.063     +0.018
      -0.011     +0.040     +0.062
      -0.006     -0.026     +0.054
      -0.074     +0.005     -0.115
      +0.057     -0.021     +0.015
      -0.023     +0.041     -0.107
      -0.007     +0.098     +0.056
      -0.005     -0.031     +0.001
      -0.073     +0.050     +0.034
      +0.107     +0.034     +0.040
      +0.159     -0.118     -0.047
      +0.134     -0.004     +0.257
      +0.378     -0.282     -0.432
vibration  29
      +0.012     +0.089     +0.058
      +0.029     -0.179     -0.154
      +0.011     -0.137     -0.066
      +0.017     +0.039     -0.001
      -0.031     +0.143     +0.105
      +0.062     +0.389     -0.226
      -0.121     -0.111     +0.441
      -0.090     +0.403     -0.229
      +0.020     -0.057     +0.459
      -0.017     +0.004     -0.009
      +0.010     +0.008     -0.026
      +0.007     +0.002     +0.004
      -0.003     -0.005     +0.001
      +0.002     +0.002     +0.004
      -0.003     -0.001     +0.001
      +0.001     -0.010     +0.004
      -0.003     -0.017     +0.012
      -0.024     +0.010     -0.008
      +0.004     +0.006     -0.006
      +0.009     -0.005     -0.001
      -0.010     +0.004     +0.001
      -0.004     -0.010     +0.002
      -0.004     +0.001     +0.000
      +0.001     +0.007     -0.001
      -0.001     +0.006     +0.010
      +0.012     -0.002     +0.034
      +0.037     -0.043     -0.049
vibration  30
      +0.172     +0.059     -0.009