[Molden Format]
[FR-COORD] # Coordinates in bohr
  O    +2.095389    -0.950951    -0.067417 
  C    +4.721728    -1.185738    -0.019401 
  C    +5.746606    -2.899476    +2.046428 
  H    +0.943391    -2.518956    -0.079054 
  H    +7.789457    -2.977201    +1.963975 
  H    +5.018123    -4.803479    +1.831353 
  H    +5.188412    -2.199542    +3.892224 
  H    +5.608783    +0.648012    -0.068919 
  H    +5.504443    -2.234137    -2.167230 
  H    +5.993343    -3.037069    -3.744444 
  O    -0.661970    +1.389504    -3.447599 
  H    +0.757590    +0.561828    -2.555500 
  H    -0.732079    +3.159619    -2.613321 
  O    -0.728899    +5.183460    -1.011622 
  H    +0.774791    +6.245091    -1.245412 
  H    -0.433698    +4.271948    +0.702797 
  O    -0.115284    +2.590830    +2.621735 
  H    -1.829954    +1.820713    +2.858308 
  H    +0.882540    +1.197609    +1.862198 
  O    -4.436971    +0.621720    +2.554701 
  H    -5.769041    +1.916743    +2.540959 
  H    -4.475887    -0.063205    +0.780099 
  O    -0.973890    -4.235156    -0.281332 
  H    -2.391628    -3.123286    -0.996212 
  H    -1.596185    -4.739413    +1.393132 
  O    -3.885136    -1.080711    -1.801069 
  H    -2.477796    +0.145055    -2.729036 
  H    -5.216707    -1.472621    -3.024945 
[FREQ] # Frequencies in cm^-1
 -2241.5512
   35.9668
   57.1099
   77.2811
   96.9719
  107.3578
  125.7887
  134.5352
  143.4931
  161.5724
  175.6216
  206.0807
  246.4248
  255.5530
  334.3648
  387.0317
  413.0181
  442.0889
  458.5906
  498.0228
  535.7117
  551.3630
  564.2680
  584.3704
  611.8514
  626.5372
  746.0825
  764.6757
  806.9129
  820.4464
  857.9215
  930.4701
  948.3858
  969.5473
  992.4447
 1062.1525
 1160.8153
 1169.7484
 1214.3786
 1222.7420
 1299.3125
 1340.5110
 1380.1130
 1433.3300
 1475.7869
 1494.7073
 1506.8088
 1533.8316
 1560.9829
 1573.5625
 1657.6994
 1667.4204
 1691.7076
 1798.0697
 1965.5983
 2114.2238
 2167.3123
 2193.7932
 2206.1175
 2232.1619
 2250.4609
 2387.4163
 2674.0680
 3148.2584
 3191.4499
 3243.4524
 3267.5263
 3285.3913
 3521.8627
 3535.1392
 3847.3434
 3971.5436
 4111.7370
 4174.5275
 4331.4074
 4334.9538
 4338.9243
 4344.3726
[FR-NORM-COORD] # Displacements in bohr
vibration  1
      -0.024     +0.014     +0.016
      +0.092     -0.102     -0.221
      -0.003     +0.009     +0.024
      +0.024     +0.024     +0.000
      +0.001     -0.001     +0.003
      -0.002     +0.004     -0.000
      -0.001     +0.003     -0.001
      -0.025     +0.011     +0.087
      -0.270     +0.402     +0.776
      +0.070     -0.128     -0.250
      +0.002     -0.001     +0.000
      -0.002     -0.003     +0.012
      -0.000     -0.001     +0.001
      -0.000     +0.000     +0.001
      +0.001     -0.001     +0.001
      +0.001     -0.005     +0.003
      +0.002     -0.001     -0.003
      +0.003     +0.001     +0.000
      +0.003     -0.005     -0.006
      -0.001     -0.001     +0.000
      -0.000     +0.000     -0.001
      +0.001     -0.000     -0.000
      -0.005     -0.008     -0.001
      +0.004     -0.003     +0.004
      -0.002     +0.001     +0.000
      -0.002     +0.002     -0.001
      -0.000     -0.000     +0.001
      -0.001     +0.001     -0.001
vibration  2
      +0.030     +0.106     +0.211
      +0.027     +0.105     +0.156
      +0.024     -0.475     -0.322
      +0.017     +0.023     +0.047
      +0.007     -0.124     -0.094
      +0.014     -0.122     -0.254
      +0.000     -0.293     -0.036
      +0.002     +0.037     +0.199
      +0.020     +0.212     -0.036
      +0.031     +0.347     -0.104
      +0.048     -0.051     +0.014
      +0.013     +0.005     +0.017
      -0.003     -0.006     -0.011
      -0.096     +0.028     -0.122
      -0.029     +0.014     -0.032
      -0.029     +0.024     -0.020
      -0.126     +0.179     -0.012
      -0.029     +0.037     -0.008
      -0.017     +0.043     +0.020
      -0.080     +0.079     -0.062
      -0.027     +0.013     -0.038
      -0.004     +0.001     -0.009
      +0.104     +0.018     +0.171
      +0.025     -0.009     +0.028
      +0.018     +0.011     +0.042
      +0.064     -0.078     +0.015
      +0.014     -0.020     +0.004
      +0.025     -0.033     -0.002
vibration  3
      -0.067     -0.097     +0.081
      -0.045     +0.034     -0.226
      +0.288     +0.198     -0.260
      -0.028     -0.028     +0.044
      +0.081     +0.081     -0.150
      +0.098     +0.045     -0.016
      +0.144     +0.081     -0.066
      -0.037     +0.020     -0.127
      -0.076     -0.015     -0.076
      -0.127     -0.036     -0.082
      +0.225     -0.123     +0.181
      +0.021     -0.043     +0.099
      +0.050     -0.029     +0.031
      +0.179     -0.061     +0.136
      +0.060     -0.031     +0.059
      +0.008     -0.015     +0.037
      -0.171     -0.121     +0.184
      -0.057     -0.014     -0.000
      -0.037     -0.032     +0.060
      -0.300     +0.170     -0.249
      -0.043     +0.076     -0.113
      -0.044     +0.023     -0.056
      -0.134     +0.040     +0.270
      -0.018     +0.012     +0.026
      -0.051     +0.055     +0.074
      +0.051     -0.038     -0.103
      +0.041     -0.008     -0.005
      +0.042     -0.028     -0.051
vibration  4
      -0.072     -0.114     -0.024
      -0.043     +0.186     +0.109
      +0.037     +0.128     +0.021
      +0.006     -0.052     -0.051
      +0.015     +0.114     +0.043
      +0.084     +0.016     -0.057
      -0.050     -0.031     +0.014
      -0.071     +0.084     +0.094
      +0.062     +0.137     +0.018
      +0.122     +0.201     +0.004
      -0.146     -0.126     +0.077
      -0.029     -0.040     -0.001
      -0.002     -0.024     +0.015
      +0.259     -0.104     -0.004
      +0.095     -0.073     -0.018
      +0.049     -0.029     +0.004
      +0.037     -0.105     -0.003
      -0.012     +0.021     +0.005
      -0.028     -0.051     -0.006
      -0.175     +0.419     +0.035
      +0.009     +0.159     -0.081
      -0.025     +0.034     +0.035
      +0.112     -0.214     -0.436
      +0.001     -0.028     -0.026
      +0.065     -0.158     -0.127
      -0.071     -0.091     +0.247
      -0.024     -0.016     +0.044
      -0.033     -0.016     +0.076
vibration  5
      -0.143     -0.017     -0.002
      -0.113     +0.233     +0.085
      -0.023     +0.143     -0.037
      -0.047     -0.011     +0.007
      -0.003     +0.111     +0.017
      +0.059     +0.024     -0.077
      -0.057     -0.031     +0.002
      -0.082     +0.094     +0.087
      +0.028     +0.156     +0.004
      +0.079     +0.227     -0.017
      +0.058     -0.093     -0.083
      -0.005     -0.045     -0.007
      +0.054     -0.015     -0.030
      +0.462     -0.066     -0.154
      +0.171     -0.089     -0.016
      +0.044     -0.023     -0.027
      -0.049     -0.085     -0.090
      -0.007     -0.022     -0.003
      -0.020     -0.029     -0.022
      +0.072     -0.438     +0.201
      -0.041     -0.170     +0.151
      -0.008     -0.036     +0.023
      -0.220     +0.157     +0.104
      -0.044     +0.049     +0.004
      -0.060     +0.074     +0.034
      -0.075     +0.138     -0.043
      +0.000     +0.022     -0.018
      -0.016     +0.025     -0.011
vibration  6
      -0.082     -0.021     +0.280
      -0.068     -0.119     -0.044
      +0.124     -0.007     -0.051
      -0.003     -0.007     +0.020
      +0.031     -0.035     -0.097
      -0.002     +0.004     +0.059
      +0.122     +0.049     -0.008
      -0.003     -0.045     -0.084
      -0.115     -0.093     -0.019
      -0.200     -0.143     -0.020
      +0.137     -0.068     +0.172
      +0.010     -0.007     +0.092
      +0.034     +0.003     -0.013
      +0.124     +0.233     -0.227
      +0.061     +0.020     -0.039
      -0.024     +0.083     -0.040
      -0.263     +0.388     +0.016
      -0.056     +0.070     +0.002
      -0.037     +0.088     +0.068
      +0.031     -0.183     +0.145
      -0.063     -0.118     +0.072
      +0.016     -0.033     +0.030
      +0.058     -0.200     -0.361
      +0.010     -0.036     -0.046
      -0.001     -0.150     -0.126
      +0.002     +0.035     +0.080
      +0.011     +0.002     +0.035
      -0.011     +0.054     +0.018
vibration  7
      -0.164     -0.182     +0.198
      -0.130     +0.070     +0.091
      +0.112     +0.092     -0.015
      -0.068     -0.051     +0.013
      +0.035     +0.094     -0.023
      +0.092     +0.006     -0.021
      +0.027     -0.014     +0.009
      -0.083     +0.043     +0.039
      -0.029     +0.070     +0.006
      -0.024     +0.111     -0.014
      +0.317     -0.188     +0.032
      +0.035     -0.046     +0.086
      +0.023     -0.042     -0.001
      -0.446     -0.228     -0.019
      -0.204     +0.069     -0.022
      -0.022     -0.035     -0.003
      +0.270     +0.021     -0.002
      +0.071     +0.011     +0.031
      +0.043     -0.010     -0.011
      +0.258     +0.078     +0.024
      +0.069     +0.024     +0.036
      +0.047     +0.047     -0.004
      -0.243     +0.070     -0.200
      -0.049     +0.054     -0.046
      -0.077     -0.018     -0.068
      +0.036     +0.190     -0.087
      +0.060     +0.012     -0.032
      -0.000     +0.064     -0.017
vibration  8
      -0.211     +0.068     +0.244
      -0.179     +0.074     +0.062
      -0.041     +0.064     -0.019
      -0.034     +0.009     +0.049
      -0.013     +0.019     -0.046
      -0.016     +0.019     +0.005
      +0.024     +0.015     +0.006
      -0.058     +0.024     +0.008
      -0.094     +0.031     -0.003
      -0.141     +0.042     -0.021
      -0.287     +0.129     -0.008
      -0.060     +0.024     -0.036
      -0.051     +0.021     +0.033
      +0.181     +0.047     +0.131
      +0.063     -0.026     -0.022
      +0.072     +0.021     +0.037
      +0.308     +0.159     +0.151
      +0.074     +0.043     +0.004
      +0.061     +0.034     +0.022
      +0.343     -0.010     -0.296
      +0.053     -0.036     -0.060
      +0.052     -0.034     -0.059
      -0.011     -0.172     +0.059
      +0.000     -0.077     -0.032
      -0.041     -0.032     +0.004
      -0.084     -0.338     -0.266
      -0.061     -0.038     -0.033
      -0.026     -0.072     -0.066
vibration  9
      -0.179     -0.075     -0.414
      -0.159     +0.061     -0.150
      -0.391     +0.052     -0.050
      -0.043     -0.045     -0.048
      -0.108     +0.045     +0.088
      -0.075     +0.006     -0.070
      -0.217     -0.011     -0.036
      -0.060     +0.026     -0.006
      +0.037     +0.036     -0.024
      +0.111     +0.054     -0.009
      +0.264     -0.106     +0.324
      +0.031     -0.020     +0.162
      +0.031     -0.014     +0.021
      -0.025     +0.216     +0.014
      -0.012     +0.064     +0.009
      -0.004     +0.071     -0.001
      +0.010     +0.140     +0.073
      -0.001     +0.034     +0.006
      -0.013     +0.034     +0.011
      +0.136     -0.009     -0.045
      +0.010     -0.028     -0.024
      +0.051     -0.021     -0.007
      +0.033     -0.153     +0.094
      +0.008     -0.026     +0.013
      +0.035     +0.017     +0.050
      +0.255     -0.154     +0.081
      +0.083     -0.008     +0.028
      +0.063     -0.037     +0.021
vibration  10
      +0.047     -0.341     +0.026
      +0.061     -0.071     +0.088
      +0.258     +0.001     +0.058
      +0.002     -0.078     +0.005
      +0.079     +0.103     +0.034
      +0.171     -0.033     -0.012
      +0.025     -0.048     +0.020
      -0.037     +0.007     +0.046
      +0.075     +0.028     +0.023
      +0.141     +0.069     +0.022
      -0.093     +0.230     +0.279
      -0.018     +0.055     +0.057
      -0.023     +0.073     +0.034
      -0.080     +0.452     -0.011
      -0.003     +0.089     -0.009
      +0.002     +0.062     -0.035
      +0.068     -0.103     -0.440
      +0.019     -0.013     -0.076
      +0.001     -0.034     -0.119
      -0.039     -0.040     -0.040
      -0.004     -0.004     -0.002
      -0.033     -0.017     -0.005
      -0.182     -0.144     +0.111
      -0.023     -0.024     +0.006
      -0.060     +0.008     +0.036
      -0.070     -0.057     -0.055
      -0.029     +0.018     +0.036
      +0.005     -0.002     -0.043
vibration  11
      +0.201     +0.088     -0.084
      +0.162     -0.006     -0.004
      +0.009     -0.057     +0.038
      -0.003     +0.038     -0.027
      +0.003     -0.046     +0.034
      -0.023     -0.006     +0.002
      -0.008     -0.009     +0.005
      +0.072     -0.013     +0.009
      +0.067     -0.013     +0.012
      +0.100     -0.026     +0.027
      -0.066     -0.339     +0.440
      -0.038     -0.072     +0.169
      -0.021     -0.062     +0.040
      +0.018     +0.024     -0.033
      +0.022     -0.025     -0.042
      +0.012     +0.033     -0.003
      +0.061     +0.074     +0.065
      +0.019     -0.000     -0.019
      +0.039     +0.031     +0.028
      +0.060     -0.039     -0.136
      +0.001     -0.024     +0.024
      -0.055     -0.013     -0.030
      -0.003     +0.439     -0.168
      -0.051     +0.065     -0.038
      +0.027     +0.063     -0.047
      -0.431     -0.147     -0.136
      -0.054     -0.035     +0.014
      -0.064     -0.064     -0.072
vibration  12
      +0.139     -0.132     -0.203
      +0.154     -0.065     -0.027
      +0.169     +0.009     +0.035
      +0.082     -0.011     -0.017
      +0.058     +0.134     +0.101
      +0.180     -0.040     -0.053
      -0.078     -0.060     -0.005
      +0.004     +0.001     +0.018
      +0.139     +0.014     +0.008
      +0.282     +0.052     +0.034
      -0.033     -0.047     -0.226
      -0.009     -0.017     -0.063
      +0.003     -0.037     -0.049
      -0.024     +0.026     +0.012
      -0.018     +0.029     +0.024
      -0.026     +0.054     +0.010
      -0.159     +0.283     +0.438
      -0.044     +0.044     +0.046
      -0.020     +0.079     +0.142
      +0.127     +0.016     -0.082
      -0.011     -0.040     +0.020
      +0.028     +0.019     -0.030
      -0.190     -0.293     +0.080
      -0.015     -0.085     +0.013
      -0.076     -0.025     +0.026
      -0.220     +0.145     -0.079
      -0.065     -0.025     -0.019
      -0.098     +0.121     -0.000
vibration  13
      +0.015     +0.080     +0.103
      +0.003     -0.049     -0.048
      -0.004     -0.016     -0.015
      -0.006     +0.022     +0.015
      +0.027     +0.397     +0.326
      +0.400     -0.128     -0.274
      -0.442     -0.255     -0.043
      +0.027     -0.029     -0.062
      -0.100     -0.095     -0.010
      -0.304     -0.234     -0.001
      -0.013     +0.013     -0.006
      -0.001     +0.006     -0.004
      -0.004     +0.004     +0.003
      +0.009     -0.023     -0.004
      +0.004     -0.010     -0.005
      +0.003     -0.008     +0.001
      +0.022     -0.005     -0.021
      +0.009     -0.002     +0.001
      +0.010     +0.000     -0.006
      -0.046     -0.004     +0.028
      -0.006     +0.005     +0.001
      -0.011     -0.002     +0.009
      +0.082     +0.103     -0.016
      +0.011     +0.020     -0.002
      +0.023     +0.004     -0.010
      +0.017     -0.024     -0.009
      +0.001     +0.000     -0.002
      +0.017     -0.028     -0.009
vibration  14
      +0.008     -0.004     +0.009
      +0.002     -0.013     +0.003
      +0.021     -0.009     +0.003
      -0.002     -0.001     +0.003
      +0.007     +0.017     +0.010
      +0.025     -0.009     -0.009
      -0.009     -0.014     +0.001
      +0.004     -0.005     -0.002
      -0.000     -0.008     +0.005
      +0.001     -0.018     +0.008
      -0.152     +0.111     +0.211
      -0.022     +0.004     +0.004
      -0.020     +0.054     +0.098
      +0.018     -0.277     +0.037
      +0.034     -0.120     -0.018
      -0.024     -0.097     +0.044
      -0.395     -0.024     -0.195
      -0.114     -0.038     -0.105
      -0.038     +0.011     +0.006
      +0.444     -0.006     -0.394
      +0.094     -0.023     -0.064
      +0.113     -0.017     -0.115
      -0.025     +0.044     +0.014
      -0.004     +0.026     +0.014
      +0.000     +0.012     +0.006
      +0.075     +0.186     +0.295
      +0.059     +0.081     +0.022
      -0.076     +0.103     +0.161
vibration  15
      -0.179     +0.001     +0.127
      -0.184     -0.030     -0.041
      +0.077     -0.052     -0.169
      -0.081     -0.012     +0.014
      +0.023     +0.048     -0.105
      +0.081     -0.034     -0.081
      +0.049     -0.078     -0.019
      -0.040     -0.015     -0.033
      +0.096     -0.096     +0.101
      +0.607     -0.348     +0.359
      -0.087     +0.105     -0.013
      -0.019     +0.019     -0.013
      -0.023     +0.030     +0.026
      +0.016     -0.105     -0.011
      +0.009     -0.042     -0.034
      +0.007     -0.015     +0.013
      -0.002     +0.113     +0.027
      -0.001     +0.038     +0.022
      -0.009     +0.014     +0.010
      -0.042     +0.018     +0.064
      -0.051     -0.037     +0.018
      -0.001     -0.004     +0.022
      +0.002     +0.192     -0.059
      -0.005     +0.074     -0.020
      +0.009     +0.030     -0.019
      +0.190     -0.121     -0.011
      +0.035     +0.021     -0.020
      +0.080     -0.121     -0.008
vibration  16
      -0.014     -0.212     -0.140
      -0.051     -0.303     -0.035
      +0.118     -0.025     +0.186
      -0.064     -0.052     -0.051
      +0.038     +0.065     +0.058
      +0.101     -0.043     +0.155
      +0.019     +0.064     +0.024
      +0.005     -0.094     -0.021
      -0.015     +0.020     -0.061
      -0.072     +0.365     -0.264
      -0.164     +0.150     -0.012
      -0.021     +0.022     -0.043
      -0.040     +0.038     +0.041
      +0.005     -0.133     -0.027
      +0.014     -0.065     -0.060
      +0.003     -0.003     +0.017
      -0.065     +0.208     +0.116
      -0.026     +0.070     +0.033
      -0.030     +0.030     +0.040
      -0.025     +0.067     +0.075
      -0.129     -0.110     +0.074
      -0.008     +0.007     +0.027
      -0.059     +0.289     -0.106
      -0.010     +0.126     -0.031
      +0.023     +0.134     +0.005
      +0.270     -0.182     -0.010
      +0.050     +0.030     -0.028
      +0.135     -0.214     -0.021
vibration  17
      -0.045     -0.089     -0.445
      -0.033     +0.229     +0.346
      +0.199     -0.102     +0.019
      -0.011     -0.042     -0.105
      +0.053     -0.041     -0.153
      +0.039     -0.015     -0.061
      +0.208     -0.141     +0.093
      -0.053     +0.089     +0.187
      -0.034     +0.028     +0.146
      -0.394     -0.312     +0.201
      -0.040     -0.021     -0.029
      -0.004     -0.010     -0.011
      -0.009     -0.009     -0.009
      -0.003     +0.039     +0.001
      +0.001     +0.007     -0.002
      -0.003     +0.023     +0.000
      -0.032     +0.027     +0.089
      -0.023     +0.036     +0.021
      -0.052     -0.007     -0.008
      +0.047     +0.049     -0.009
      -0.074     -0.076     +0.051
      +0.007     +0.014     -0.002
      -0.075     +0.036     -0.045
      -0.015     +0.030     -0.011
      +0.038     +0.139     +0.049
      +0.076     -0.063     +0.024
      +0.016     +0.002     -0.010
      +0.028     -0.060     +0.011
vibration  18
      -0.043     +0.026     -0.050
      -0.050     -0.043     +0.037
      +0.054     -0.021     +0.031
      -0.027     +0.011     -0.006
      +0.016     +0.025     -0.020
      +0.043     -0.018     +0.022
      +0.035     -0.012     +0.017
      -0.006     -0.016     +0.012
      -0.009     -0.001     +0.012
      -0.007     +0.027     -0.005
      +0.023     -0.028     -0.068
      -0.001     -0.001     +0.005
      -0.001     -0.010     -0.028
      +0.010     +0.125     -0.012
      +0.073     -0.053     +0.057
      -0.076     +0.006     -0.005
      -0.279     -0.037     +0.025
      -0.012     -0.129     +0.023
      +0.016     +0.047     +0.025
      +0.174     -0.038     +0.289
      +0.532     +0.494     -0.297
      +0.081     -0.092     +0.101
      -0.062     +0.105     -0.029
      -0.014     +0.005     -0.051
      -0.037     +0.049     -0.009
      +0.026     -0.163     -0.161
      -0.010     -0.029     -0.035
      -0.002     -0.046     -0.029
vibration  19
      -0.104     +0.038     -0.081
      -0.108     -0.103     +0.054
      +0.091     -0.040     +0.058
      -0.045     +0.012     -0.008
      +0.028     +0.052     -0.038
      +0.083     -0.036     +0.049
      +0.061     -0.016     +0.029
      -0.015     -0.037     +0.012
      -0.017     -0.009     +0.015
      +0.017     +0.058     -0.012
      -0.092     -0.034     -0.009
      -0.026     -0.008     +0.010
      -0.007     +0.001     -0.033
      +0.005     +0.078     -0.139
      -0.056     +0.095     -0.055
      +0.040     +0.060     -0.034
      +0.318     +0.066     +0.171
      +0.092     -0.027     +0.012
      +0.088     +0.030     +0.022
      -0.309     -0.376     -0.284
      +0.127     +0.118     -0.346
      +0.061     -0.130     -0.063
      +0.030     +0.112     -0.016
      -0.010     +0.016     +0.017
      +0.035     +0.003     -0.003
      +0.078     +0.152     +0.313
      +0.007     +0.040     +0.024
      -0.108     +0.128     +0.192
vibration  20
      +0.252     -0.144     +0.084
      +0.289     +0.231     -0.056
      -0.119     +0.065     -0.081
      +0.059     -0.041     -0.005
      -0.038     -0.122     +0.084
      -0.163     +0.076     -0.101
      -0.099     +0.015     -0.042
      +0.037     +0.090     +0.014
      +0.057     +0.034     -0.018
      -0.095     -0.124     +0.026
      -0.105     +0.202     +0.200
      -0.007     +0.043     +0.003
      -0.041     +0.055     +0.084
      -0.006     -0.276     -0.118
      +0.017     -0.124     -0.139
      +0.022     -0.022     +0.002
      +0.107     +0.218     +0.030
      +0.035     +0.029     +0.025
      +0.043     +0.042     +0.037
      -0.197     -0.112     +0.098
      +0.060     +0.086     -0.176
      +0.032     -0.088     +0.042
      -0.330     -0.133     -0.058
      -0.019     +0.020     -0.074
      -0.158     +0.083     -0.005
      +0.175     -0.033     -0.054
      +0.046     +0.041     +0.002
      +0.042     -0.006     -0.012
vibration  21
      +0.116     -0.498     +0.209
      +0.071     +0.137     -0.050
      -0.136     +0.074     -0.090
      +0.024     -0.134     +0.058
      -0.043     -0.091     +0.055
      -0.141     +0.064     -0.074
      -0.088     +0.025     -0.042
      -0.045     +0.073     +0.015
      +0.024     +0.039     -0.005
      -0.066     -0.088     +0.021
      -0.104     -0.057     -0.241
      -0.060     -0.042     -0.013
      +0.016     -0.009     -0.084
      +0.012     +0.255     -0.042
      -0.060     +0.172     +0.073
      -0.004     +0.048     -0.029
      -0.082     -0.085     +0.171
      -0.020     -0.033     +0.001
      -0.007     -0.026     +0.071
      +0.112     -0.035     -0.148
      +0.056     +0.019     +0.020
      -0.022     +0.017     -0.038
      +0.058     +0.271     -0.006
      +0.012     +0.141     +0.101
      +0.041     -0.180     -0.071
      +0.027     +0.030     +0.161
      -0.043     +0.009     -0.023
      +0.094     -0.257     +0.032
vibration  22
      -0.014     -0.236     +0.196
      -0.045     +0.002     -0.031
      -0.063     +0.034     -0.042
      +0.022     -0.074     -0.137
      -0.019     -0.014     +0.014
      -0.040     +0.018     -0.011
      -0.038     +0.022     -0.023
      -0.037     +0.012     -0.012
      -0.009     +0.004     -0.010
      +0.019     -0.015     +0.003
      -0.032     -0.007     -0.012
      -0.029     -0.003     +0.030
      +0.009     +0.007     -0.029
      +0.012     +0.021     -0.060
      -0.045     +0.078     +0.011
      +0.013     +0.002     -0.021
      -0.031     -0.045     +0.049
      -0.019     +0.022     +0.027
      -0.032     -0.042     +0.036
      +0.015     +0.039     +0.040
      -0.018     -0.013     -0.034
      +0.052     -0.007     +0.012
      +0.246     -0.050     -0.099
      +0.091     -0.057     -0.162
      +0.171     +0.739     +0.248
      -0.075     +0.024     -0.052
      -0.044     +0.014     -0.012
      -0.156     +0.197     +0.075
vibration  23
      -0.025     -0.108     +0.013
      -0.037     -0.003     +0.005
      -0.014     +0.006     -0.007
      +0.006     -0.033     +0.006
      -0.004     +0.001     -0.008
      -0.005     +0.002     -0.001
      +0.001     +0.001     -0.000
      -0.023     +0.005     +0.007
      -0.003     +0.004     +0.003
      -0.007     -0.006     +0.007
      +0.014     +0.025     +0.004
      -0.023     +0.051     +0.092
      -0.153     -0.020     +0.025
      -0.248     +0.188     -0.127
      +0.427     -0.671     -0.213
      -0.138     -0.006     -0.042
      +0.086     -0.117     +0.158
      +0.039     -0.048     +0.084
      +0.017     -0.029     +0.034
      +0.001     +0.013     -0.038
      -0.007     -0.004     +0.056
      -0.003     +0.063     -0.032
      +0.150     +0.005     +0.048
      +0.030     +0.006     +0.035
      +0.055     -0.042     +0.005
      +0.014     +0.168     -0.061
      +0.005     -0.007     -0.045
      -0.010     +0.032     +0.003
vibration  24
      -0.081     -0.226     -0.133
      -0.131     -0.020     +0.029
      -0.016     +0.003     -0.003
      +0.026     -0.072     +0.002
      -0.005     +0.020     -0.042
      +0.014     -0.007     +0.010
      +0.030     -0.010     +0.014
      -0.065     +0.008     +0.032
      -0.008     +0.013     +0.021
      -0.037     -0.008     +0.017
      -0.022     +0.192     +0.188
      -0.028     +0.004     +0.033
      +0.030     +0.052     +0.049
      +0.058     -0.313     -0.081
      -0.106     +0.079     -0.048
      +0.046     -0.023     +0.007
      +0.011     +0.183     -0.015
      +0.013     -0.007     -0.043
      +0.033     +0.056     +0.010
      -0.076     -0.093     +0.048
      +0.168     +0.172     +0.070
      -0.136     +0.045     -0.017
      +0.403     -0.077     +0.151
      +0.085     +0.025     +0.113
      +0.156     -0.132     +0.024
      -0.248     +0.308     -0.194
      -0.026     +0.079     +0.004
      +0.144     -0.131     -0.210
vibration  25
      -0.013     +0.288     +0.072
      +0.032     -0.015     +0.001
      +0.026     -0.016     +0.018
      +0.014     +0.059     -0.075
      +0.009     +0.016     +0.002
      +0.025     -0.012     +0.013
      +0.005     -0.001     +0.003
      +0.043     -0.022     -0.024
      -0.013     -0.018     -0.010
      +0.042     +0.022     -0.006
      -0.019     +0.021     +0.057
      +0.013     +0.060     +0.033
      -0.013     +0.027     -0.055
      -0.011     +0.065     -0.231
      -0.024     +0.053     -0.026
      -0.006     -0.001     -0.063
      +0.016     -0.202     +0.161
      +0.024     -0.116     -0.038
      +0.079     -0.013     +0.085
      +0.063     -0.039     -0.145
      +0.128     +0.106     +0.215
      -0.196     +0.095     -0.064
      -0.217     -0.259     -0.137
      +0.001     +0.066     +0.045
      +0.057     +0.266     +0.113
      -0.001     +0.100     +0.196
      +0.016     +0.018     +0.064
      +0.322     -0.392     -0.169
vibration  26
      -0.006     +0.057     -0.034
      -0.017     -0.008     +0.007
      +0.010     -0.011     +0.013
      -0.005     +0.021     +0.057
      +0.003     +0.009     -0.008
      +0.015     -0.008     +0.008
      +0.011     -0.006     +0.008
      +0.006     -0.007     +0.002
      -0.006     -0.002     +0.005
      -0.001     +0.007     -0.001
      -0.115     +0.196     +0.204
      -0.058     +0.082     +0.130
      -0.018     +0.089     -0.077
      +0.028     -0.030     -0.501
      -0.145     +0.212     -0.084
      +0.045     -0.019     -0.131
      -0.049     -0.384     +0.293
      -0.036     -0.023     +0.085
      -0.049     -0.146     +0.131
      +0.103     +0.128     +0.099
      -0.077     -0.074     -0.006
      +0.105     +0.010     +0.025
      +0.052     +0.056     +0.084
      +0.009     -0.038     -0.050
      -0.112     -0.175     -0.084
      +0.097     -0.052     -0.172
      +0.001     +0.046     -0.010
      -0.110     +0.200     +0.034
vibration  27
      +0.041     -0.102     +0.018
      -0.031     +0.006     +0.008
      -0.022     +0.033     -0.033
      -0.054     +0.006     -0.090
      -0.007     -0.001     -0.002
      -0.016     +0.014     -0.011
      -0.011     +0.009     -0.011
      -0.018     +0.008     +0.021
      +0.006     +0.017     +0.010
      -0.016     -0.010     +0.007
      +0.199     +0.245     -0.031
      +0.181     +0.121     -0.178
      +0.043     +0.052     +0.012
      -0.005     -0.067     -0.105
      +0.012     -0.025     +0.025
      -0.049     -0.017     -0.012
      -0.004     +0.045     +0.068
      +0.040     -0.101     -0.032
      +0.083     +0.068     +0.012
      -0.052     -0.056     -0.099
      +0.133     +0.138     +0.317
      -0.196     +0.180     -0.092
      -0.087     +0.145     -0.033
      -0.176     -0.116     +0.090
      +0.226     -0.076     +0.046
      -0.086     -0.381     +0.147
      +0.080     -0.092     +0.157
      -0.098     +0.370     -0.033
vibration  28
      +0.005     +0.006     +0.029
      -0.017     -0.011     +0.002
      -0.011     +0.011     -0.017
      +0.004     +0.013     -0.116
      -0.003     +0.008     -0.006
      +0.001     +0.001     +0.004
      -0.004     +0.010     -0.008
      -0.004     -0.004     +0.001
      -0.007     -0.001     -0.002
      +0.006     -0.000     +0.000
      +0.278     +0.231     -0.040
      +0.136     +0.114     -0.079
      +0.027     +0.050     -0.000
      -0.031     -0.039     -0.074
      +0.016     -0.050     -0.050
      +0.014     -0.027     -0.023
      +0.006     -0.064     +0.036
      -0.047     +0.117     +0.061
      -0.114     -0.094     -0.002
      +0.111     +0.051     +0.037
      -0.154     -0.178     -0.430
      +0.164     -0.323     +0.144
      -0.083     +0.030     -0.026
      -0.117     -0.010     +0.180
      +0.290     -0.043     +0.092
      -0.337     -0.056     +0.119
      +0.005     -0.039     +0.080