[Molden Format]
[FR-COORD] # Coordinates in bohr
  O    +2.200470    -1.146024    +0.027665 
  C    +4.838989    -1.201331    +0.091023 
  C    +5.980200    +1.417937    -0.125768 
  H    +1.188550    -2.796216    +0.011624 
  H    +8.018174    +1.322933    +0.018300 
  H    +5.265255    +2.618635    +1.367493 
  H    +5.487244    +2.263298    -1.927639 
  H    +5.668350    -2.557721    -1.196871 
  H    +5.599085    -2.053147    +2.327884 
  H    +6.078202    -2.629553    +4.007901 
  O    -0.878974    +0.985807    -3.293159 
  H    +0.646992    +0.285052    -2.477784 
  H    -1.088311    +2.724710    -2.405183 
  O    -1.233475    +4.692509    -0.766799 
  H    +0.155675    +5.897477    -1.012955 
  H    -0.812019    +3.778450    +0.925791 
  O    -0.291407    +2.119812    +2.796803 
  H    -1.916156    +1.186253    +3.069742 
  H    +0.820750    +0.838424    +1.998411 
  O    -4.410659    -0.247353    +2.809257 
  H    -5.857701    +0.917151    +2.853876 
  H    -4.430540    -0.898425    +1.022833 
  O    -0.569817    -4.703671    -0.192456 
  H    -2.101695    -3.727407    -0.852600 
  H    -1.103314    -5.299973    +1.482299 
  O    -3.810957    -1.808128    -1.599507 
  H    -2.555690    -0.451486    -2.536038 
  H    -5.130821    -2.298633    -2.800438 
[FREQ] # Frequencies in cm^-1
 -2241.9627
   42.7319
   62.6285
   74.4269
   90.7330
  106.5085
  121.4225
  134.6033
  146.8640
  169.6374
  176.5717
  227.7112
  245.8049
  255.2207
  340.9302
  368.2574
  413.6460
  430.6749
  442.5681
  466.6476
  535.5682
  549.3080
  568.7765
  588.2526
  611.6149
  632.3240
  736.3510
  757.9556
  804.7254
  821.6168
  844.0135
  927.6059
  960.4184
  981.3461
  993.4911
 1067.0192
 1142.8464
 1182.1002
 1207.9068
 1229.3757
 1269.0049
 1337.0461
 1380.6050
 1426.2423
 1446.2746
 1506.8802
 1519.9200
 1547.0522
 1555.9050
 1577.4145
 1659.6409
 1674.8833
 1705.5681
 1805.8890
 1955.9710
 2127.9797
 2168.0357
 2193.6951
 2206.2197
 2233.3613
 2251.5768
 2411.4338
 2730.6393
 3115.4118
 3196.4045
 3222.0315
 3259.0791
 3283.3702
 3505.5600
 3564.6408
 3858.6942
 3977.5782
 4109.0260
 4201.0279
 4331.1969
 4336.6162
 4339.2549
 4345.3066
[FR-NORM-COORD] # Displacements in bohr
vibration  1
      +0.025     -0.014     +0.016
      -0.091     +0.093     -0.224
      +0.003     -0.011     +0.021
      -0.018     -0.025     -0.003
      -0.000     -0.002     +0.001
      +0.001     +0.002     +0.003
      +0.002     +0.004     +0.001
      +0.022     -0.059     +0.075
      +0.264     -0.288     +0.826
      -0.069     +0.091     -0.268
      -0.002     +0.002     -0.001
      -0.000     +0.005     -0.009
      -0.000     +0.004     +0.003
      +0.001     -0.002     -0.001
      -0.001     +0.001     -0.000
      -0.001     +0.001     +0.001
      -0.003     +0.002     +0.000
      -0.001     -0.001     +0.002
      -0.000     +0.004     +0.010
      +0.001     +0.001     +0.000
      +0.000     -0.000     +0.001
      -0.002     +0.000     +0.002
      +0.004     +0.008     +0.000
      -0.003     +0.001     -0.002
      +0.004     -0.000     -0.000
      +0.002     -0.002     -0.001
      -0.004     -0.003     +0.001
      +0.000     -0.000     +0.000
vibration  2
      -0.011     -0.023     +0.117
      -0.011     +0.004     +0.125
      -0.020     -0.050     -0.577
      -0.006     -0.005     +0.032
      -0.007     +0.001     -0.146
      -0.017     +0.104     -0.268
      +0.004     -0.160     -0.238
      -0.001     -0.097     +0.141
      -0.004     +0.176     +0.103
      -0.004     +0.312     +0.149
      +0.196     +0.055     +0.122
      +0.032     +0.005     +0.058
      +0.036     +0.008     +0.033
      +0.060     +0.020     +0.184
      +0.019     +0.006     +0.072
      -0.007     -0.004     +0.045
      -0.123     -0.086     +0.175
      -0.035     -0.024     +0.011
      -0.020     -0.014     +0.049
      -0.141     -0.063     -0.136
      -0.033     -0.012     -0.044
      -0.015     -0.004     -0.039
      -0.036     +0.018     +0.084
      +0.004     +0.008     -0.006
      -0.034     +0.017     +0.017
      +0.084     +0.032     -0.132
      +0.037     +0.014     -0.008
      +0.040     +0.011     -0.055
vibration  3
      -0.024     -0.091     +0.008
      -0.011     +0.094     -0.351
      -0.229     +0.217     -0.027
      -0.005     -0.032     +0.026
      -0.058     +0.098     -0.100
      -0.029     -0.033     +0.088
      -0.160     +0.150     +0.059
      -0.024     +0.112     -0.204
      +0.102     -0.077     -0.175
      +0.183     -0.159     -0.229
      +0.231     -0.142     +0.163
      +0.028     -0.049     +0.093
      +0.055     -0.031     +0.020
      +0.235     -0.043     +0.082
      +0.078     -0.029     +0.036
      +0.027     -0.009     +0.024
      -0.067     -0.106     +0.157
      -0.035     -0.008     +0.002
      -0.017     -0.032     +0.051
      -0.239     +0.194     -0.183
      -0.031     +0.087     -0.102
      -0.030     +0.022     -0.037
      -0.044     -0.019     +0.224
      -0.003     -0.001     +0.031
      -0.020     +0.029     +0.065
      +0.079     -0.061     -0.030
      +0.041     -0.014     +0.004
      +0.042     -0.029     -0.026
vibration  4
      -0.049     -0.139     -0.047
      -0.047     +0.130     +0.179
      -0.290     +0.227     +0.033
      +0.007     -0.050     -0.051
      -0.085     +0.130     +0.062
      -0.155     +0.084     -0.040
      -0.066     +0.003     -0.025
      +0.056     +0.027     +0.107
      -0.044     +0.122     +0.094
      -0.071     +0.187     +0.124
      -0.102     -0.099     +0.007
      -0.016     -0.039     -0.030
      +0.017     -0.016     +0.006
      +0.354     -0.078     -0.025
      +0.125     -0.065     -0.022
      +0.071     -0.029     -0.002
      +0.141     -0.119     -0.043
      +0.014     +0.012     +0.006
      -0.003     -0.057     -0.023
      -0.057     +0.264     +0.100
      +0.015     +0.106     -0.027
      -0.004     +0.024     +0.040
      +0.077     -0.177     -0.421
      +0.000     -0.019     -0.032
      +0.056     -0.129     -0.124
      -0.038     -0.034     +0.204
      -0.016     -0.007     +0.032
      -0.030     +0.002     +0.069
vibration  5
      -0.098     -0.037     -0.040
      -0.090     +0.102     +0.040
      -0.238     +0.171     +0.056
      -0.042     -0.008     +0.016
      -0.068     +0.085     +0.027
      -0.098     +0.038     +0.012
      -0.075     +0.040     +0.013
      +0.007     +0.040     +0.022
      -0.032     +0.049     +0.021
      -0.041     +0.064     +0.029
      +0.111     -0.010     -0.140
      +0.011     -0.026     -0.023
      +0.052     +0.001     -0.033
      +0.319     -0.014     -0.120
      +0.113     -0.037     -0.012
      +0.039     -0.015     -0.025
      +0.066     -0.071     -0.098
      +0.028     -0.028     -0.004
      +0.011     -0.019     -0.033
      +0.264     -0.484     +0.151
      +0.011     -0.195     +0.161
      +0.021     -0.033     +0.007
      -0.277     +0.156     +0.244
      -0.047     +0.047     +0.012
      -0.095     +0.111     +0.079
      -0.048     +0.177     -0.131
      +0.007     +0.030     -0.036
      -0.010     +0.041     -0.034
vibration  6
      -0.096     -0.018     +0.247
      -0.075     -0.065     -0.055
      -0.056     -0.078     -0.082
      -0.008     -0.009     +0.018
      -0.012     -0.034     -0.092
      +0.039     -0.035     +0.013
      -0.071     -0.001     +0.001
      -0.068     -0.009     -0.057
      +0.045     -0.050     -0.050
      +0.104     -0.076     -0.077
      +0.212     -0.093     +0.197
      +0.023     -0.015     +0.117
      +0.044     +0.001     -0.017
      +0.108     +0.258     -0.248
      +0.061     +0.030     -0.043
      -0.034     +0.088     -0.043
      -0.303     +0.380     +0.032
      -0.063     +0.069     +0.007
      -0.047     +0.087     +0.070
      +0.074     -0.213     +0.170
      -0.051     -0.142     +0.085
      +0.025     -0.035     +0.034
      +0.076     -0.168     -0.345
      +0.012     -0.028     -0.043
      +0.017     -0.136     -0.121
      +0.033     +0.039     +0.098
      +0.025     +0.003     +0.038
      -0.006     +0.051     +0.023
vibration  7
      -0.123     -0.184     +0.128
      -0.109     -0.034     +0.043
      -0.271     +0.034     +0.007
      -0.042     -0.051     +0.016
      -0.075     +0.046     -0.028
      -0.078     -0.005     +0.014
      -0.120     +0.004     +0.011
      -0.021     +0.003     +0.006
      -0.000     +0.003     +0.008
      +0.023     +0.014     +0.003
      +0.299     -0.040     +0.037
      +0.043     -0.006     +0.076
      +0.010     -0.017     +0.008
      -0.474     -0.142     +0.057
      -0.229     +0.087     -0.007
      -0.015     -0.005     +0.007
      +0.337     +0.126     +0.021
      +0.088     +0.035     +0.027
      +0.058     +0.017     -0.011
      +0.342     +0.163     -0.073
      +0.089     +0.044     -0.008
      +0.074     +0.046     -0.020
      -0.140     -0.080     -0.095
      -0.020     +0.008     -0.035
      -0.058     -0.029     -0.035
      +0.135     +0.094     -0.114
      +0.063     +0.009     -0.030
      +0.018     +0.049     -0.021
vibration  8
      +0.144     -0.066     -0.237
      +0.122     +0.008     -0.047
      +0.091     +0.029     +0.014
      +0.017     -0.016     -0.051
      +0.023     +0.021     +0.064
      -0.024     +0.011     -0.023
      +0.074     -0.003     -0.015
      +0.069     +0.004     +0.006
      -0.006     +0.013     +0.004
      -0.044     +0.021     +0.018
      +0.388     -0.187     -0.013
      +0.072     -0.042     +0.058
      +0.062     -0.039     -0.038
      -0.229     -0.175     -0.115
      -0.100     +0.016     +0.023
      -0.065     -0.044     -0.031
      -0.199     -0.199     -0.101
      -0.046     -0.049     +0.012
      -0.044     -0.047     -0.018
      -0.270     +0.002     +0.304
      -0.035     +0.042     +0.067
      -0.043     +0.041     +0.060
      -0.067     +0.182     -0.106
      -0.021     +0.084     +0.022
      +0.021     +0.031     -0.020
      +0.050     +0.370     +0.241
      +0.069     +0.038     +0.021
      +0.016     +0.083     +0.060
vibration  9
      +0.043     +0.181     +0.459
      +0.043     +0.070     +0.056
      +0.115     +0.033     -0.067
      -0.003     +0.057     +0.053
      +0.040     -0.018     -0.132
      +0.131     +0.006     +0.030
      -0.055     +0.032     +0.015
      -0.054     +0.022     -0.029
      +0.113     -0.003     -0.027
      +0.222     -0.022     -0.064
      -0.074     -0.164     -0.272
      -0.015     -0.049     -0.090
      -0.000     -0.050     -0.018
      +0.057     -0.453     -0.027
      -0.005     -0.095     -0.020
      +0.015     -0.087     +0.020
      +0.030     -0.005     +0.204
      +0.010     -0.009     +0.039
      +0.029     +0.001     +0.070
      +0.001     +0.019     +0.018
      +0.006     +0.011     +0.029
      -0.018     +0.025     -0.002
      -0.033     +0.261     -0.212
      -0.023     +0.052     -0.035
      -0.020     -0.029     -0.091
      -0.228     +0.110     -0.083
      -0.040     -0.011     -0.045
      -0.061     +0.017     -0.012
vibration  10
      +0.021     -0.139     +0.313
      +0.023     -0.070     +0.049
      -0.122     -0.016     -0.051
      +0.031     -0.034     +0.052
      -0.027     +0.023     -0.116
      +0.021     -0.028     +0.030
      -0.137     +0.004     +0.017
      -0.020     -0.004     -0.021
      +0.104     -0.025     -0.019
      +0.217     -0.031     -0.053
      -0.089     +0.402     -0.347
      +0.014     +0.096     -0.176
      -0.005     +0.088     -0.021
      -0.037     +0.038     -0.003
      -0.014     +0.019     +0.026
      -0.010     -0.041     -0.012
      -0.070     -0.163     -0.278
      -0.016     -0.026     -0.021
      -0.021     -0.051     -0.067
      -0.161     -0.000     +0.147
      -0.016     +0.033     -0.012
      +0.009     +0.010     +0.033
      +0.065     -0.261     +0.124
      +0.053     -0.023     +0.031
      -0.016     -0.054     +0.026
      +0.296     +0.185     +0.111
      +0.023     +0.049     -0.002
      +0.055     +0.048     +0.048
vibration  11
      +0.242     -0.206     +0.234
      +0.212     -0.013     +0.092
      +0.025     +0.069     +0.003
      +0.017     -0.038     +0.022
      +0.013     +0.060     -0.056
      +0.025     +0.004     +0.022
      -0.060     +0.012     +0.016
      +0.068     +0.011     +0.016
      +0.133     +0.021     +0.013
      +0.227     +0.046     -0.005
      -0.072     -0.027     +0.399
      -0.024     -0.002     +0.115
      -0.023     +0.022     +0.048
      -0.088     +0.232     -0.038
      -0.004     +0.034     -0.032
      +0.010     +0.020     -0.033
      +0.131     -0.157     -0.434
      +0.039     -0.032     -0.078
      +0.037     -0.042     -0.107
      -0.068     -0.045     -0.041
      +0.003     +0.012     +0.019
      -0.073     -0.017     -0.004
      -0.126     +0.203     -0.068
      -0.042     +0.043     -0.021
      -0.035     +0.016     -0.032
      -0.285     -0.083     -0.099
      -0.048     -0.004     +0.033
      -0.022     -0.034     -0.073
vibration  12
      -0.310     +0.210     +0.094
      -0.306     +0.036     +0.010
      +0.005     -0.111     -0.040
      -0.118     +0.023     +0.004
      +0.009     -0.127     -0.183
      +0.180     -0.034     +0.076
      -0.108     +0.035     +0.050
      -0.134     -0.015     -0.000
      -0.118     -0.020     -0.003
      -0.204     -0.057     +0.012
      +0.048     +0.004     +0.194
      +0.008     +0.005     +0.065
      -0.003     +0.022     +0.047
      +0.051     -0.092     -0.003
      +0.025     -0.043     -0.025
      +0.027     -0.051     +0.003
      +0.132     -0.170     -0.296
      +0.036     -0.023     -0.025
      +0.015     -0.048     -0.109
      -0.082     -0.025     +0.067
      +0.005     +0.027     -0.023
      -0.007     -0.021     +0.025
      +0.157     +0.347     -0.081
      +0.003     +0.092     -0.014
      +0.079     +0.050     -0.023
      +0.293     -0.138     +0.078
      +0.078     +0.030     +0.009
      +0.118     -0.122     +0.006
vibration  13
      -0.115     +0.053     +0.196
      -0.111     +0.014     -0.065
      -0.024     -0.020     -0.023
      -0.044     +0.004     +0.024
      -0.041     +0.028     +0.496
      -0.379     +0.111     -0.281
      +0.426     -0.163     -0.200
      -0.070     +0.023     -0.065
      +0.050     -0.069     -0.076
      +0.206     -0.193     -0.159
      -0.023     +0.036     +0.065
      -0.004     +0.009     +0.010
      -0.008     +0.019     +0.028
      +0.021     -0.072     -0.002
      +0.012     -0.030     -0.018
      +0.011     -0.029     +0.006
      +0.013     -0.030     -0.109
      +0.003     -0.001     -0.012
      +0.002     -0.014     -0.026
      +0.019     -0.001     -0.008
      +0.004     -0.001     -0.008
      +0.008     -0.006     -0.001
      +0.036     +0.124     -0.023
      -0.000     +0.036     -0.006
      +0.014     +0.006     -0.014
      +0.103     -0.033     +0.031
      +0.027     +0.018     +0.001
      +0.035     -0.037     +0.009
vibration  14
      -0.031     +0.019     +0.024
      -0.025     +0.005     -0.007
      -0.010     -0.003     -0.006
      -0.007     +0.004     +0.002
      -0.006     -0.001     +0.041
      -0.033     +0.010     -0.025
      +0.034     -0.015     -0.018
      -0.015     +0.001     -0.007
      -0.005     -0.009     -0.006
      -0.004     -0.026     -0.013
      +0.141     -0.061     -0.226
      +0.020     +0.005     -0.010
      +0.019     -0.043     -0.095
      -0.035     +0.253     -0.028
      -0.040     +0.107     +0.019
      +0.016     +0.092     -0.042
      +0.402     +0.060     +0.166
      +0.116     +0.048     +0.103
      +0.041     -0.009     -0.012
      -0.435     -0.042     +0.412
      -0.095     +0.013     +0.067
      -0.111     +0.002     +0.120
      +0.042     -0.018     -0.018
      +0.007     -0.019     -0.015
      +0.005     -0.010     -0.008
      -0.048     -0.205     -0.297
      -0.050     -0.081     -0.026
      +0.088     -0.107     -0.163
vibration  15
      -0.163     -0.007     -0.257
      -0.160     -0.042     -0.007
      +0.066     -0.121     +0.178
      -0.057     -0.015     -0.052
      +0.016     -0.116     +0.054
      +0.069     -0.061     +0.097
      +0.052     +0.044     +0.082
      -0.026     -0.022     +0.021
      +0.102     +0.136     -0.010
      +0.652     +0.521     -0.013
      -0.021     -0.003     +0.009
      -0.003     -0.001     +0.004
      -0.009     -0.000     +0.004
      +0.008     -0.012     -0.006
      +0.005     -0.009     -0.011
      -0.001     +0.008     +0.004
      -0.007     +0.038     +0.051
      -0.006     +0.018     +0.016
      -0.020     +0.004     -0.005
      -0.004     +0.011     +0.023
      -0.020     -0.021     +0.004
      +0.008     -0.003     +0.009
      -0.068     +0.055     -0.036
      -0.021     +0.029     -0.011
      +0.008     +0.060     +0.015
      +0.129     -0.072     +0.016
      +0.028     +0.008     -0.008
      +0.046     -0.057     +0.006
vibration  16
      +0.210     -0.129     -0.169
      +0.120     -0.288     +0.137
      -0.352     -0.148     -0.021
      +0.004     -0.016     -0.053
      -0.092     +0.135     -0.058
      -0.174     -0.073     -0.016
      -0.228     -0.117     -0.007
      +0.082     -0.085     +0.069
      +0.029     -0.083     +0.047
      +0.086     -0.171     +0.010
      -0.144     +0.066     -0.038
      -0.014     +0.013     -0.048
      -0.028     +0.015     +0.016
      +0.006     -0.052     -0.027
      +0.010     -0.029     -0.033
      -0.007     +0.014     +0.010
      -0.101     +0.165     +0.160
      -0.031     +0.040     +0.025
      -0.018     +0.035     +0.054
      +0.001     +0.041     +0.022
      -0.070     -0.080     +0.057
      -0.013     +0.007     +0.010
      +0.151     +0.434     -0.057
      +0.021     +0.119     -0.006
      +0.089     +0.156     +0.017
      +0.138     -0.084     -0.004
      +0.014     +0.018     -0.020
      +0.102     -0.154     -0.020
vibration  17
      +0.116     -0.203     +0.271
      +0.105     -0.095     -0.415
      +0.028     -0.015     +0.071
      +0.008     -0.048     +0.039
      +0.002     +0.014     +0.128
      -0.083     -0.109     +0.061
      +0.095     +0.105     +0.049
      -0.005     +0.021     -0.193
      -0.010     +0.065     -0.101
      -0.374     +0.450     +0.138
      -0.104     +0.121     +0.032
      -0.021     +0.018     -0.013
      -0.026     +0.033     +0.043
      +0.011     -0.141     -0.020
      +0.008     -0.053     -0.051
      +0.013     -0.024     +0.011
      -0.038     +0.127     +0.008
      -0.019     +0.048     +0.010
      -0.002     +0.007     +0.042
      -0.033     +0.058     +0.054
      -0.112     -0.118     +0.090
      -0.024     +0.017     +0.015
      -0.083     +0.083     -0.040
      -0.003     +0.069     -0.014
      -0.046     -0.001     -0.026
      +0.134     -0.053     -0.050
      +0.020     +0.025     -0.014
      +0.100     -0.112     -0.045
vibration  18
      -0.021     -0.203     -0.110
      +0.007     +0.210     +0.167
      +0.236     +0.181     -0.067
      -0.011     -0.079     -0.045
      +0.069     -0.045     -0.075
      +0.174     +0.137     -0.037
      +0.071     +0.021     -0.035
      +0.066     +0.061     +0.087
      -0.000     +0.001     +0.027
      +0.042     -0.272     -0.071
      -0.084     +0.094     +0.083
      -0.007     +0.013     -0.015
      -0.026     +0.024     +0.059
      +0.012     -0.172     +0.013
      +0.001     -0.055     -0.060
      +0.027     -0.021     +0.021
      -0.009     +0.112     -0.002
      -0.045     +0.106     +0.019
      -0.063     -0.027     -0.007
      -0.014     +0.159     +0.039
      -0.284     -0.321     +0.231
      -0.041     +0.058     +0.007
      -0.316     -0.121     -0.079
      -0.045     +0.053     -0.028
      -0.090     +0.061     +0.010
      +0.214     -0.109     -0.036
      +0.051     +0.023     -0.008
      +0.136     -0.135     -0.056
vibration  19
      -0.020     +0.075     +0.003
      -0.023     -0.048     -0.020
      -0.066     -0.058     +0.015
      +0.010     +0.022     +0.007
      -0.019     +0.003     +0.013
      -0.039     -0.032     +0.007
      -0.023     -0.013     +0.007
      -0.026     -0.019     -0.012
      -0.002     -0.004     -0.000
      +0.021     +0.051     +0.008
      -0.009     -0.039     +0.030
      -0.001     -0.010     +0.003
      +0.010     -0.004     -0.005
      -0.006     -0.028     -0.018
      -0.095     +0.092     -0.040
      +0.074     +0.027     -0.012
      +0.361     +0.035     +0.009
      +0.038     +0.091     -0.024
      +0.026     -0.034     -0.027
      -0.243     -0.118     -0.378
      -0.367     -0.423     +0.152
      -0.063     +0.044     -0.120
      +0.196     -0.034     +0.049
      +0.027     -0.023     +0.067
      +0.095     -0.055     +0.011
      -0.097     +0.234     +0.263
      -0.008     +0.029     +0.045
      -0.079     +0.124     +0.100
vibration  20
      -0.036     +0.151     +0.004
      -0.046     -0.046     -0.026
      -0.077     -0.075     +0.014
      +0.020     +0.045     +0.008
      -0.022     -0.003     +0.011
      -0.043     -0.040     +0.009
      -0.029     -0.016     +0.009
      -0.044     -0.023     -0.017
      -0.008     -0.005     -0.004
      +0.027     +0.057     +0.004
      +0.164     -0.051     -0.062
      +0.036     -0.005     -0.005
      +0.033     -0.025     -0.010
      -0.004     +0.038     +0.170
      +0.032     -0.014     +0.100
      -0.025     -0.046     +0.024
      -0.228     -0.204     -0.180
      -0.082     +0.005     -0.033
      -0.076     -0.057     -0.048
      +0.274     +0.373     +0.126
      -0.165     -0.218     +0.403
      -0.098     +0.155     +0.013
      +0.250     -0.065     +0.075
      +0.039     -0.056     +0.035
      +0.086     -0.046     +0.016
      -0.233     -0.045     -0.211
      -0.032     -0.051     -0.008
      +0.031     -0.025     -0.150
vibration  21
      -0.046     -0.257     +0.057
      -0.075     +0.067     +0.003
      +0.072     +0.051     -0.007
      -0.023     -0.077     +0.082
      +0.019     -0.055     -0.001
      +0.065     +0.041     -0.003
      +0.058     +0.031     -0.004
      +0.013     +0.033     +0.006
      -0.008     +0.022     -0.017
      -0.026     -0.018     -0.013
      -0.025     -0.150     -0.289
      -0.033     -0.058     -0.019
      +0.032     -0.031     -0.106
      -0.014     +0.342     +0.036
      -0.075     +0.196     +0.131
      -0.017     +0.055     -0.020
      -0.067     -0.162     +0.127
      -0.017     -0.047     -0.013
      -0.012     -0.031     +0.031
      +0.152     +0.002     -0.195
      +0.037     -0.009     +0.063
      -0.038     +0.033     -0.050
      -0.062     +0.266     +0.016
      -0.047     +0.127     +0.158
      +0.043     -0.389     -0.146
      +0.044     -0.024     +0.227
      -0.028     -0.021     -0.011
      +0.142     -0.282     +0.028
vibration  22
      -0.061     -0.263     +0.189
      -0.095     +0.062     -0.011
      +0.057     +0.033     -0.010
      -0.002     -0.084     -0.132
      +0.014     -0.065     +0.004
      +0.061     +0.035     -0.003
      +0.060     +0.030     -0.006
      -0.016     +0.038     -0.020
      -0.001     +0.017     -0.027
      -0.050     +0.010     -0.007
      -0.022     -0.106     -0.140
      -0.031     -0.033     +0.017
      +0.028     -0.011     -0.078
      +0.011     +0.185     -0.019
      -0.097     +0.180     +0.087
      +0.009     +0.028     -0.025
      -0.053     -0.134     +0.080
      -0.032     +0.008     +0.025
      -0.042     -0.066     +0.035
      +0.078     +0.058     -0.034
      -0.028     -0.047     -0.018
      +0.058     +0.004     -0.004
      +0.122     +0.031     -0.141
      +0.055     -0.014     -0.138
      +0.099     +0.686     +0.233
      -0.016     -0.056     +0.069
      -0.047     -0.010     -0.011
      -0.144     +0.100     +0.126
vibration  23
      -0.038     -0.139     +0.036
      -0.051     +0.031     +0.007
      +0.021     +0.014     -0.001
      +0.002     -0.046     -0.004
      +0.005     -0.035     -0.002
      +0.034     +0.020     -0.000
      +0.027     +0.011     -0.003
      -0.000     +0.015     +0.005
      -0.005     +0.010     -0.005
      -0.004     -0.007     -0.008
      +0.005     -0.008     -0.039
      -0.035     +0.044     +0.110
      -0.154     -0.041     +0.008
      -0.270     +0.219     -0.113
      +0.481     -0.602     -0.213
      -0.141     -0.014     -0.043
      +0.096     -0.140     +0.170
      +0.043     -0.046     +0.090
      +0.013     -0.039     +0.037
      +0.017     +0.022     -0.053
      -0.011     -0.017     +0.052
      +0.002     +0.065     -0.033
      +0.113     +0.022     +0.020
      +0.025     +0.015     +0.024
      +0.057     +0.015     +0.017
      +0.024     +0.147     -0.028
      +0.001     -0.010     -0.051
      -0.021     +0.019     +0.031
vibration  24
      +0.092     +0.265     +0.038
      +0.137     -0.068     -0.017
      -0.030     -0.020     +0.001
      -0.033     +0.097     +0.037
      -0.006     +0.082     +0.001
      -0.070     -0.046     +0.003
      -0.052     -0.019     +0.006
      -0.005     -0.030     -0.021
      +0.027     -0.024     +0.012
      -0.010     +0.020     +0.024
      +0.064     -0.149     -0.153
      +0.047     -0.003     -0.063
      -0.011     -0.052     -0.016
      -0.059     +0.211     +0.147
      +0.104     -0.076     +0.048
      -0.037     +0.009     +0.016
      -0.001     -0.100     -0.063
      -0.016     +0.033     +0.043
      -0.037     -0.039     -0.040
      +0.027     +0.107     +0.020
      -0.185     -0.208     -0.117
      +0.183     -0.053     +0.034
      -0.315     +0.127     -0.063
      -0.085     -0.072     -0.111
      -0.180     -0.061     -0.083
      +0.246     -0.318     +0.087
      +0.037     -0.083     -0.009
      -0.254     +0.258     +0.234
vibration  25
      +0.057     +0.399     +0.087
      +0.128     -0.064     -0.005
      -0.044     -0.035     +0.003
      +0.011     +0.109     -0.071
      -0.010     +0.086     +0.004
      -0.079     -0.049     +0.001
      -0.061     -0.030     +0.005
      -0.035     -0.034     -0.028
      +0.025     -0.032     +0.018
      -0.003     +0.026     +0.025
      +0.040     -0.065     -0.030
      +0.050     +0.046     -0.036
      -0.012     -0.012     -0.029
      -0.044     +0.114     -0.044
      +0.051     -0.037     +0.002
      -0.028     +0.004     -0.019
      +0.049     -0.107     +0.048
      +0.039     -0.092     -0.053
      +0.082     +0.029     +0.032
      +0.033     -0.043     -0.159
      +0.087     +0.076     +0.163
      -0.175     +0.046     -0.049
      -0.301     -0.257     -0.174
      -0.031     +0.048     +0.023
      -0.007     +0.286     +0.109
      +0.031     +0.014     +0.265
      +0.030     -0.021     +0.068
      +0.312     -0.331     -0.131
vibration  26
      +0.014     +0.143     +0.003
      +0.024     -0.013     +0.006
      -0.013     -0.019     +0.003
      +0.004     +0.041     +0.040
      -0.003     +0.021     -0.002
      -0.022     -0.016     +0.001
      -0.021     -0.013     +0.002
      -0.011     -0.013     +0.001
      +0.000     -0.007     +0.008
      +0.008     +0.002     +0.005
      -0.138     +0.165     +0.209
      -0.066     +0.088     +0.153
      -0.038     +0.091     -0.093
      +0.012     +0.007     -0.539
      -0.165     +0.202     -0.081
      +0.041     -0.013     -0.145
      +0.011     -0.430     +0.318
      -0.020     -0.058     +0.071
      -0.004     -0.146     +0.151
      +0.099     +0.120     +0.055
      -0.039     -0.052     +0.048
      +0.049     +0.038     +0.007
      -0.014     -0.012     +0.040
      +0.014     -0.016     -0.048
      -0.102     -0.096     -0.055
      +0.110     -0.014     -0.112
      -0.000     +0.049     +0.005
      -0.033     +0.090     -0.000
vibration  27
      -0.014     +0.105     -0.014
      +0.057     -0.006     +0.002
      -0.004     -0.031     +0.005
      +0.060     +0.002     +0.104
      -0.000     +0.021     +0.001
      -0.025     -0.024     +0.003
      -0.021     -0.016     +0.003
      -0.013     -0.021     +0.004
      +0.001     -0.009     +0.017
      +0.015     -0.000     +0.004
      -0.182     -0.279     +0.011
      -0.181     -0.156     +0.201
      -0.036     -0.057     -0.017
      +0.005     +0.072     +0.128
      -0.011     +0.027     +0.004
      +0.035     +0.019     +0.016
      +0.006     -0.030     -0.082
      -0.039     +0.081     +0.027
      -0.059     -0.057     -0.014
      +0.037     +0.058     +0.096
      -0.123     -0.136     -0.282
      +0.200     -0.144     +0.076
      +0.104     -0.134     +0.030
      +0.174     +0.131     -0.122
      -0.276     +0.060     -0.052
      +0.069     +0.373     -0.139
      -0.098     +0.090     -0.159
      +0.113     -0.342     +0.041
vibration  28
      -0.001     -0.008     -0.024
      +0.015     -0.008     +0.002
      +0.002     +0.004     +0.003
      -0.005     -0.011     +0.108
      +0.001     +0.009     +0.003
      -0.004     -0.001     +0.000
      -0.001     +0.000     +0.001
      +0.013     -0.008     +0.012
      -0.003     +0.002     +0.006
      +0.006     -0.008     +0.001
      -0.231     -0.240     +0.030
      -0.107     -0.122     +0.059
      -0.014     -0.050     +0.003
      +0.028     +0.042     +0.077
      -0.018     +0.046     +0.053
      -0.019     +0.027     +0.027
      -0.013     +0.073     -0.031
      +0.058     -0.114     -0.067
      +0.103     +0.109     -0.005
      -0.110     -0.069     -0.046
      +0.164     +0.201     +0.457
      -0.222     +0.322     -0.140
      +0.079     -0.013     +0.021
      +0.098     +0.012     -0.176
      -0.272     +0.017     -0.080
      +0.314     +0.053     -0.108
      +0.001     +0.032     -0.063