The saddle point                                                        
Freq      RHF                                                         STO-3G              
Number of atoms                            I                5
Info1-9                                    I   N=           9
          14          14        1002           0           1         100
           6           1           2
Charge                                     I                0
Multiplicity                               I                1
Number of electrons                        I               24
Number of alpha electrons                  I               12
Number of beta electrons                   I               12
Number of basis functions                  I               17
Number of independent functions            I               17
Number of point charges in /Mol/           I                0
Number of translation vectors              I                0
Atomic numbers                             I   N=           5
           6           8           8           1           1
Nuclear charges                            R   N=           5
  6.00000000E+00  8.00000000E+00  8.00000000E+00  1.00000000E+00  1.00000000E+00
Current cartesian coordinates              R   N=          15
 -6.02955702E-01  1.09509891E-02 -5.68227824E-01 -7.12812257E-01 -8.56036658E-02
  2.09222940E+00  1.36660985E+00 -2.95998413E-02 -1.73818201E+00 -7.31842746E-01
  1.70529825E+00  2.64210244E+00 -2.48427341E+00 -1.02973149E-03 -1.48747901E+00
Force Field                                I                0
Int Atom Types                             I   N=           5
           0           0           0           0           0
MM charges                                 R   N=           5
  0.00000000E+00  0.00000000E+00  0.00000000E+00  0.00000000E+00  0.00000000E+00
Integer atomic weights                     I   N=           5
          12          16          16           1           1
Real atomic weights                        R   N=           5
  1.20000000E+01  1.59949146E+01  1.59949146E+01  1.00782504E+00  1.00782504E+00
Atom fragment info                         I   N=           5
           0           0           0           0           0
Atom residue num                           I   N=           5
           0           0           0           0           0
Nuclear spins                              I   N=           5
           0           0           0           1           1
Nuclear ZEff                               R   N=           5
 -3.60000000E+00 -5.60000000E+00 -5.60000000E+00 -1.00000000E+00 -1.00000000E+00
Nuclear QMom                               R   N=           5
  0.00000000E+00  0.00000000E+00  0.00000000E+00  0.00000000E+00  0.00000000E+00
Nuclear GFac                               R   N=           5
  0.00000000E+00  0.00000000E+00  0.00000000E+00  2.79284600E+00  2.79284600E+00
MicOpt                                     I   N=           5
          -1          -1          -1          -1          -1
Number of contracted shells                I                8
Number of primitive shells                 I               24
Pure/Cartesian d shells                    I                0
Pure/Cartesian f shells                    I                0
Highest angular momentum                   I                1
Largest degree of contraction              I                3
Shell types                                I   N=           8
           0          -1           0          -1           0          -1
           0           0
Number of primitives per shell             I   N=           8
           3           3           3           3           3           3
           3           3
Shell to atom map                          I   N=           8
           1           1           2           2           3           3
           4           5
Primitive exponents                        R   N=          24
  7.16168373E+01  1.30450963E+01  3.53051216E+00  2.94124936E+00  6.83483096E-01
  2.22289916E-01  1.30709321E+02  2.38088661E+01  6.44360831E+00  5.03315132E+00
  1.16959612E+00  3.80388960E-01  1.30709321E+02  2.38088661E+01  6.44360831E+00
  5.03315132E+00  1.16959612E+00  3.80388960E-01  3.42525091E+00  6.23913730E-01
  1.68855404E-01  3.42525091E+00  6.23913730E-01  1.68855404E-01
Contraction coefficients                   R   N=          24
  1.54328967E-01  5.35328142E-01  4.44634542E-01 -9.99672292E-02  3.99512826E-01
  7.00115469E-01  1.54328967E-01  5.35328142E-01  4.44634542E-01 -9.99672292E-02
  3.99512826E-01  7.00115469E-01  1.54328967E-01  5.35328142E-01  4.44634542E-01
 -9.99672292E-02  3.99512826E-01  7.00115469E-01  1.54328967E-01  5.35328142E-01
  4.44634542E-01  1.54328967E-01  5.35328142E-01  4.44634542E-01
P(S=P) Contraction coefficients            R   N=          24
  0.00000000E+00  0.00000000E+00  0.00000000E+00  1.55916275E-01  6.07683719E-01
  3.91957393E-01  0.00000000E+00  0.00000000E+00  0.00000000E+00  1.55916275E-01
  6.07683719E-01  3.91957393E-01  0.00000000E+00  0.00000000E+00  0.00000000E+00
  1.55916275E-01  6.07683719E-01  3.91957393E-01  0.00000000E+00  0.00000000E+00
  0.00000000E+00  0.00000000E+00  0.00000000E+00  0.00000000E+00
Coordinates of each shell                  R   N=          24
 -6.02955702E-01  1.09509891E-02 -5.68227824E-01 -6.02955702E-01  1.09509891E-02
 -5.68227824E-01 -7.12812257E-01 -8.56036658E-02  2.09222940E+00 -7.12812257E-01
 -8.56036658E-02  2.09222940E+00  1.36660985E+00 -2.95998413E-02 -1.73818201E+00
  1.36660985E+00 -2.95998413E-02 -1.73818201E+00 -7.31842746E-01  1.70529825E+00
  2.64210244E+00 -2.48427341E+00 -1.02973149E-03 -1.48747901E+00
Constraint Structure                       R   N=          15
 -6.02955702E-01  1.09509891E-02 -5.68227824E-01 -7.12812257E-01 -8.56036658E-02
  2.09222940E+00  1.36660985E+00 -2.95998413E-02 -1.73818201E+00 -7.31842746E-01
  1.70529825E+00  2.64210244E+00 -2.48427341E+00 -1.02973149E-03 -1.48747901E+00
Num ILSW                                   I              100
ILSW                                       I   N=         100
           0           0           0           0           2           0
           0           0           0           0           0          -1
           0           0           0           0           0           0
           0           0           0           0           1           0
           1           1           0           0           0           0
           0           0      100000           0          -1           0
           0           0           0           0           0           0
           0           0           0           1           0           0
           0           0           1           0           0           0
           0           0           4          40           0           0
           0           0           0           0           0           0
           0           0           0           0           0           0
           0           0           0           0           0           0
           0           0           0           0           0           0
           0           0           0           0           0           0
           0           0           0           0           0           0
           0           0           0           0
Num RLSW                                   I               40
RLSW                                       R   N=          40
  1.00000000E+00  1.00000000E+00  1.00000000E+00  1.00000000E+00  1.00000000E+00
  0.00000000E+00  0.00000000E+00  1.00000000E+00  0.00000000E+00  0.00000000E+00
  0.00000000E+00  0.00000000E+00  1.00000000E+00  0.00000000E+00  0.00000000E+00
  0.00000000E+00  0.00000000E+00  1.00000000E+00  0.00000000E+00  0.00000000E+00
  0.00000000E+00  0.00000000E+00  1.00000000E+00  0.00000000E+00  0.00000000E+00
  0.00000000E+00  0.00000000E+00  1.00000000E+00  0.00000000E+00  0.00000000E+00
  0.00000000E+00  0.00000000E+00  1.00000000E+00  0.00000000E+00  0.00000000E+00
  0.00000000E+00  0.00000000E+00  0.00000000E+00  1.00000000E+00  1.00000000E+00
MxBond                                     I                3
NBond                                      I   N=           5
           3           2           1           1           1
IBond                                      I   N=          15
           2           3           5           1           4           0
           1           0           0           2           0           0
           1           0           0
RBond                                      R   N=          15
  1.00000000E+00  2.00000000E+00  1.00000000E+00  1.00000000E+00  1.00000000E+00
  0.00000000E+00  2.00000000E+00  0.00000000E+00  0.00000000E+00  1.00000000E+00
  0.00000000E+00  0.00000000E+00  1.00000000E+00  0.00000000E+00  0.00000000E+00
Virial Ratio                               R      2.009041945103362E+00
SCF Energy                                 R     -1.862027165691210E+02
Total Energy                               R     -1.862027165691210E+02
RMS Force                                  R      2.859577908268778E-08
RMS Density                                R      2.956585512946572E-10
External E-field                           R   N=          35
  0.00000000E+00  0.00000000E+00  0.00000000E+00  0.00000000E+00  0.00000000E+00
  0.00000000E+00  0.00000000E+00  0.00000000E+00  0.00000000E+00  0.00000000E+00
  0.00000000E+00  0.00000000E+00  0.00000000E+00  0.00000000E+00  0.00000000E+00
  0.00000000E+00  0.00000000E+00  0.00000000E+00  0.00000000E+00  0.00000000E+00
  0.00000000E+00  0.00000000E+00  0.00000000E+00  0.00000000E+00  0.00000000E+00
  0.00000000E+00  0.00000000E+00  0.00000000E+00  0.00000000E+00  0.00000000E+00
  0.00000000E+00  0.00000000E+00  0.00000000E+00  0.00000000E+00  0.00000000E+00
IOpCl                                      I                0
IROHF                                      I                0
Alpha Orbital Energies                     R   N=          17
 -2.03100699E+01 -2.02935927E+01 -1.11749819E+01 -1.37485804E+00 -1.28134180E+00
 -7.83535908E-01 -6.52710686E-01 -5.81649946E-01 -5.38595135E-01 -4.17398375E-01
 -4.02011403E-01 -3.61304966E-01  2.79062531E-01  5.44313110E-01  6.43284061E-01
  7.13688827E-01  9.30830556E-01
Alpha MO coefficients                      R   N=         289
  5.30773046E-04 -7.30548532E-03 -5.55726488E-03  1.19324313E-04  3.20594203E-03
  1.53550335E-03  2.52908424E-04  4.25235566E-04 -3.34779236E-05 -1.51994540E-04
  9.94265998E-01  2.60987069E-02 -4.92238976E-03  1.04583583E-04  2.94957928E-03
  5.71408706E-05  1.68406089E-04  4.84600664E-04 -4.10785687E-03  1.36119718E-04
  2.87182009E-04 -4.29993676E-03  9.94189107E-01  2.58798410E-02  1.12621000E-04
  3.22779161E-03 -2.37579621E-03 -1.58420869E-03  9.25313386E-05  1.78978789E-04
 -3.40229056E-05  4.46148595E-04 -5.65487378E-03  1.64433004E-04  9.92786437E-01
  3.13162819E-02  4.70317787E-04 -1.29417055E-04 -6.92014612E-04  3.58445167E-04
 -3.95134581E-03 -2.77683252E-04  4.11032702E-04  2.55882655E-03  1.14070527E-04
 -5.64574506E-03  1.30122609E-03 -1.04840912E-05 -8.27058721E-04 -1.37748215E-03
 -6.45479445E-03 -1.34168040E-01  3.11216074E-01  1.07169888E-01  1.24902039E-03
 -1.13000811E-02 -1.18906427E-01  4.19970145E-01  8.20863507E-03  4.59799470E-02
 -6.45809465E-02 -1.75731450E-01  6.08251149E-01 -1.26792616E-01  4.08308292E-03
  8.13417003E-02  6.47076014E-02  3.32647986E-02  1.06947988E-02 -1.22576732E-02
 -1.02626096E-01  3.63681295E-03  1.61283572E-01 -1.95559752E-01  7.08734001E-01
 -5.93439573E-03  8.20161519E-02 -4.78438035E-02  1.33500077E-01 -4.74262812E-01
  7.98076590E-02 -1.88755414E-03 -3.34724195E-02  1.32078697E-01 -9.74233577E-04
 -1.70128411E-01  5.57509394E-01 -2.47197021E-01 -1.30106118E-02 -1.67028448E-02
  4.89844157E-02 -2.12400251E-01 -6.79185035E-02 -1.02612846E-01 -2.50097250E-01
  8.64370337E-02 -3.79152686E-01 -1.78649131E-01 -7.85192190E-03  2.63434365E-02
 -1.82137697E-01  3.16872853E-01 -1.67607587E-02  7.95816097E-02  2.55686578E-01
 -1.08284554E-01  3.69026199E-01 -1.15063749E-03  8.65806136E-03  1.66730041E-01
 -2.78674155E-01 -3.29610255E-01  1.66085885E-02 -8.22682604E-02  1.10077759E-01
 -6.10872948E-02  3.21385536E-01 -3.19220311E-01 -2.25428979E-01  5.30336581E-02
 -1.70610612E-01 -3.20802481E-01 -1.98759308E-01  9.35394272E-02 -4.63717453E-02
  2.27345377E-01 -2.36995180E-01 -3.25756491E-01 -2.74677869E-02 -9.00914739E-02
  4.66353094E-01  3.81709831E-01 -1.45167809E-01 -3.54647852E-01 -2.21070161E-01
  9.57969421E-02 -6.47134693E-03  3.97944063E-02 -1.50576224E-01  3.30564251E-01
  2.97397252E-01  7.06454508E-02 -3.56720511E-01 -1.03952831E-01  3.72393448E-01
 -3.29520101E-01 -4.57665060E-02  2.49764817E-01  4.22758362E-01  2.49411466E-01
  3.77253607E-02  1.18154608E-01  3.61604278E-02  1.02587672E-02 -2.57102642E-02
  2.14721920E-02  4.45860546E-01 -4.40450970E-02 -5.30768023E-02  2.80544051E-01
  1.30802139E-01 -3.60041675E-01  4.34044824E-02  3.83510805E-04 -4.46836549E-03
 -1.41152883E-01  6.05711236E-01 -2.64064598E-01 -2.67759601E-01 -6.10633182E-02
 -2.14394045E-03  1.78321988E-02 -1.05985419E-01 -6.33154813E-02  1.40540579E-02
  1.10508766E-02 -5.94826776E-02  9.23699515E-01  7.78969873E-02 -3.09949642E-02
 -1.07190531E-02  6.21960586E-02  1.53151111E-01 -1.06038377E-01 -2.66142264E-01
  3.85189400E-02  1.70823095E-01 -4.28273327E-04 -2.09103837E-02 -8.26774235E-02
  6.11876777E-02 -1.28203993E-01 -1.55677484E-02  8.20342510E-02  1.06218619E-01
 -2.09778939E-01  4.21849804E-01  5.59994743E-04 -3.03337546E-03  4.37850047E-01
  1.39501136E-01  6.62156771E-01 -1.04830725E-02  3.43509050E-01 -5.00614526E-03
  3.41592542E-02  2.00357109E-03  8.28926311E-01  3.78321447E-03 -2.24062054E-02
  1.37348835E-01 -5.98536797E-03 -8.54229643E-02  8.45447945E-02  4.24326210E-06
 -4.77985122E-04 -3.93486092E-03 -7.46341364E-01  6.33084414E-03 -2.24047549E-01
 -1.40140903E-02 -1.44174226E-01  8.13268986E-01 -1.27838386E-01  4.23527059E-02
  3.49435963E-01  1.19101851E-01 -7.52400821E-01 -6.10414992E-03 -5.79776086E-01
  3.88176393E-01  2.37200583E-02 -1.35530677E-01  1.14716941E-01 -3.36274697E-02
 -2.01100148E-01  7.39143958E-01 -4.91339750E-01 -1.48704185E-01  9.02282602E-01
 -4.08513933E-01 -1.03339160E-01 -1.15549351E-01 -2.88088842E-02  2.07200694E-01
  4.29798494E-02  5.36664660E-01  4.64807218E-01  2.25531599E-02 -1.34507355E-01
  2.12331651E-01  5.50990985E-02 -2.40674278E-02 -7.25741092E-01 -8.38494697E-01
 -3.08132902E-03 -5.97860567E-02  4.89464745E-01 -5.66366029E-02  9.41825364E-01
  3.34575041E-02 -2.06556421E-01 -1.06941629E-01  2.58995330E-01  6.43151061E-01
 -3.18633363E-03  2.59611693E-02 -1.96401114E-01  3.08986289E-02 -2.60967775E-01
 -3.81591324E-01  7.17039887E-01 -8.91815966E-02  6.21100495E-01  1.06189886E+00
 -1.66725203E-02 -5.54168614E-01 -1.25563972E-02  8.90943897E-02 -1.77782915E-01
  2.21549837E-02 -9.81163894E-02  1.15047065E-01 -8.67600462E-01  7.84165260E-01
 -1.79903211E-02 -4.78515679E-01 -2.29778652E-02  2.15533208E-01
Total SCF Density                          R   N=         153
  2.07185987E+00 -2.33165055E-01  8.94628863E-01  1.44029052E-02 -6.95479415E-02
  5.85295136E-01 -8.45033727E-03  3.53207708E-02  1.00372390E-03  7.34464231E-01
  3.63834748E-03  2.89485954E-02  2.81559016E-02  2.43478225E-02  5.56794301E-01
  5.81622348E-03  2.27050561E-03 -3.46970934E-03  1.23315537E-02 -2.90977735E-02
  2.10704072E+00  1.29816109E-03 -1.17831867E-01  2.66374928E-02 -4.86017876E-02
  1.53296663E-02 -4.51581441E-01  1.98492259E+00 -1.05196873E-02  5.04065852E-02
  9.74313255E-02  3.78875071E-03  4.26516140E-03  4.07165264E-03 -2.24347721E-02
  1.96219999E+00 -1.24216429E-02  3.86967108E-02  8.21761051E-04  8.28369723E-02
  7.13898438E-02  8.32945218E-02 -4.65695569E-01  2.93006596E-03  1.04307880E+00
  1.19544207E-01 -4.08000209E-01  6.61233431E-03 -3.53026909E-02 -5.62868117E-01
 -5.68328236E-02  2.98186537E-01  4.88060185E-02 -2.19366626E-01  9.35606737E-01
  1.24134169E-02 -1.46514976E-03 -3.65774834E-02  2.24565613E-03  1.82388633E-02
 -4.95948828E-04 -1.11251944E-03  2.28071418E-02  1.09390288E-03 -8.27325510E-03
  2.11068964E+00 -6.89879756E-03 -1.83046638E-01 -1.45042200E-02 -6.72874010E-03
  2.41169128E-02 -1.87053674E-03  2.17945455E-02 -1.20176910E-01 -1.83504219E-03
  1.36368387E-02 -4.65018602E-01  2.05979543E+00  1.26492790E-01 -3.64592857E-01
 -3.82035096E-01  1.71517940E-02  3.43119925E-01  1.05918344E-02 -6.92152780E-02
  1.28140058E-01 -1.52801053E-02  7.36238186E-02 -8.15194698E-02  4.72003430E-01
  1.25204660E+00 -2.30006690E-03  1.27307887E-02  1.73562148E-02  8.06655079E-01
 -1.64397124E-02 -2.32113141E-02  1.34443250E-01 -1.00632910E-02 -1.95150472E-01
  6.43050243E-02  1.10397914E-03 -7.49194093E-03  6.76220999E-03  9.69368271E-01
 -8.68671112E-02  2.32288422E-01  3.27361720E-01 -2.51447801E-02  2.57903090E-02
  3.62385790E-02 -1.80750990E-01 -1.54501699E-01 -5.25113129E-02  3.14505247E-01
  5.02606477E-02 -2.88691408E-01  3.69371558E-01  4.18959844E-03  1.63588161E+00
  2.47680482E-02 -1.16479480E-01  1.89052165E-03 -3.94040214E-03 -1.32046338E-01
 -2.86025294E-02 -2.82233949E-02 -3.10603060E-03  6.78112859E-01  1.80364298E-01
 -1.46140687E-03  4.16996759E-03  8.80696752E-03 -1.70449902E-01  5.96453064E-02
  5.85725633E-01 -1.14611198E-01  3.02816469E-01 -4.32602667E-01 -7.56692863E-03
 -2.16489464E-01  2.01423800E-02 -9.23574618E-02  2.02000144E-01 -4.55122037E-02
  2.30706620E-01  1.17773266E-02 -3.45982173E-02  3.02623529E-01 -1.29583744E-03
  2.08300969E-01  3.74053153E-02  6.27536405E-01
QEq coupling tensors                       R   N=          30
 -3.90519692E-02  1.08839813E-03  1.34059645E-01  7.80699422E-02  3.43997229E-02
 -9.50076759E-02  2.56489426E+00  1.28287100E-02 -1.06548746E+00  1.88615345E-01
 -8.83648189E-01 -1.49940680E+00 -1.00951833E-01  2.65402946E-02 -1.30455436E+00
  1.44862817E+00  1.43597176E-02  1.40550619E+00  2.27982296E-01  7.09412908E-03
 -3.30911386E-01  4.71014330E-03 -1.85629448E-01  1.02929090E-01 -2.13773985E-01
 -1.58195710E-03  1.49737220E-01 -1.75839391E-01 -1.93215244E-03  6.40367647E-02
Mulliken Charges                           R   N=           5
  2.43406583E-01 -2.91919415E-01 -2.08673771E-01  1.97621208E-01  5.95653951E-02
Optimization MaxStp                        I                2
Optimization Job offset                    I                0
Optimization Num results per geometry      I                2
Optimization Num geometry variables        I               15
Opt point       1 Results for each geome   R   N=           2
 -1.86202717E+02  0.00000000E+00
Opt point       1 Geometries               R   N=          15
 -6.02955702E-01  1.09509891E-02 -5.68227824E-01 -7.12812257E-01 -8.56036658E-02
  2.09222940E+00  1.36660985E+00 -2.95998413E-02 -1.73818201E+00 -7.31842746E-01
  1.70529825E+00  2.64210244E+00 -2.48427341E+00 -1.02973149E-03 -1.48747901E+00
Opt point       1 Gradient at each geome   R   N=          15
 -3.53221452E-09  1.37890491E-08 -3.53897700E-08  1.98207986E-08  4.04173108E-08
  7.44069801E-08 -1.09641505E-08 -9.24917801E-09 -3.32420313E-09 -1.11888623E-08
 -4.72029527E-08 -1.70224728E-08  5.86444537E-09  2.24576738E-09 -1.86704943E-08
Optimization Number of geometries          I   N=           1
           1
ONIOM Charges                              I   N=          16
           0           0           0           0           0           0
           0           0           0           0           0           0
           0           0           0           0
ONIOM Multiplicities                       I   N=          16
           1           0           0           0           0           0
           0           0           0           0           0           0
           0           0           0           0
Atom Layers                                I   N=           5
           1           1           1           1           1
Atom Modifiers                             I   N=           5
           0           0           0           0           0
Force Field                                I                0
Int Atom Modified Types                    I   N=           5
           0           0           0           0           0
Link Atoms                                 I   N=           5
           0           0           0           0           0
Atom Modified MM Charges                   R   N=           5
  0.00000000E+00  0.00000000E+00  0.00000000E+00  0.00000000E+00  0.00000000E+00
Link Distances                             R   N=          20
  0.00000000E+00  0.00000000E+00  0.00000000E+00  0.00000000E+00  0.00000000E+00
  0.00000000E+00  0.00000000E+00  0.00000000E+00  0.00000000E+00  0.00000000E+00
  0.00000000E+00  0.00000000E+00  0.00000000E+00  0.00000000E+00  0.00000000E+00
  0.00000000E+00  0.00000000E+00  0.00000000E+00  0.00000000E+00  0.00000000E+00
Cartesian Gradient                         R   N=          15
 -3.53221452E-09  1.37890491E-08 -3.53897700E-08  1.98207986E-08  4.04173108E-08
  7.44069801E-08 -1.09641505E-08 -9.24917801E-09 -3.32420313E-09 -1.11888623E-08
 -4.72029527E-08 -1.70224728E-08  5.86444537E-09  2.24576738E-09 -1.86704943E-08
Cartesian Force Constants                  R   N=         120
  1.23906196E+00 -1.32288811E-02  2.43303316E-01 -2.61982956E-01  2.55155776E-02
  9.15308394E-01 -7.59603688E-02 -2.76970855E-03 -4.10018135E-03  5.49843397E-02
  1.60358457E-03 -1.03217732E-01 -3.91355259E-02 -4.95015497E-03  6.37101502E-01
 -1.23052062E-02  4.93778124E-02 -3.92971230E-01 -2.56161959E-02  1.62298290E-01
  5.64982164E-01 -8.24965600E-01  1.44626415E-02  3.98035683E-01  3.84085682E-03
  1.57822457E-03  3.12074366E-02  8.66606932E-01  1.57809639E-02 -7.12442603E-02
 -9.12889651E-03  3.52800504E-03  2.18432251E-02 -4.11279079E-03 -1.61973158E-02
  2.34700746E-02  4.07782848E-01 -8.14862753E-03 -3.40371978E-01  5.56143571E-02
 -5.21401361E-03 -4.92411932E-02 -4.59027075E-01  9.28953289E-03  3.71338880E-01
 -2.45514873E-03  3.78362333E-03  2.33090199E-03  1.03718517E-02  1.49183306E-03
  3.50454420E-03 -1.48083737E-03 -3.10659158E-03  2.90676526E-03 -6.09025116E-03
  1.09879838E-03  3.18834208E-03  2.64157981E-02  7.08814255E-03 -5.79533669E-01
 -2.03976830E-01 -2.92449441E-03  6.11752412E-06  4.02300039E-03 -5.16654636E-03
  5.77073303E-01  4.63532744E-03 -6.51499852E-02 -3.46881393E-02  4.44930862E-03
 -1.16570223E-01 -9.60264523E-02 -2.52923874E-03  4.02571646E-03 -7.90191938E-04
 -6.67333629E-03  1.72291825E-01  1.32201365E-01 -3.35680845E-01 -2.24767520E-03
 -1.34283447E-01  6.76332063E-03  2.76512771E-04  3.20942117E-03 -4.40013515E-02
 -5.06156305E-06 -7.27689495E-03 -3.45614414E-04 -9.59001508E-05  1.17938960E-04
  3.73264491E-01 -5.25446578E-03 -7.20296659E-02 -3.66695331E-03 -2.89628407E-03
  2.38066738E-02 -3.58648129E-03  3.08094415E-03  2.59248431E-02  5.01078588E-05
  2.99768155E-03 -7.34093120E-04  5.40266659E-03  2.07212414E-03  2.30322422E-02
 -1.38130013E-01 -1.59477727E-03 -1.47277046E-01 -3.03472885E-02 -1.37852720E-03
 -2.67432882E-02  3.23131941E-02 -7.35620510E-05  1.90644836E-02 -2.06887516E-03
  1.24620638E-03 -6.96581574E-04  1.38232982E-01  1.80066015E-03  1.55652432E-01
Dipole Moment                              R   N=           3
 -5.49159152E-01  5.47578131E-01  9.87289769E-02
Dipole Derivatives                         R   N=          45
  6.21988171E-01 -1.07447039E-02  7.42103568E-02 -3.44082883E-03  1.73084688E-01
  9.91507186E-02  4.46223186E-02  1.72794116E-01  1.09128645E+00 -5.39150399E-01
 -2.47586868E-03 -8.07978604E-02  3.70805261E-03  8.38500445E-02 -1.48883210E-02
  3.17652177E-02 -1.26996219E-01 -6.71262662E-01 -3.95798494E-01  1.02747339E-02
  5.16688824E-02  1.23298458E-03 -2.22987817E-01 -2.03375639E-02 -8.48003545E-02
 -3.53160677E-02 -5.15140649E-01  2.87686740E-01  2.13848584E-03  6.26375576E-03
  1.61163976E-03 -9.19793397E-02 -3.70388485E-02  9.48598057E-03  1.33537201E-02
  2.06881152E-01  2.52739818E-02  8.07352837E-04 -5.13451346E-02 -3.11184812E-03
  5.80324239E-02 -2.68859852E-02 -1.07316236E-03 -2.38355491E-02 -1.11764294E-01
Polarizability                             R   N=           6
  9.28651608E+00 -3.24032799E-01  5.64312904E+00 -2.65384446E+00  2.18627904E+00
  1.11551522E+01
HyperPolarizability                        R   N=          10
 -6.75137617E+00  3.08896959E-01 -2.39848878E+00  7.59017497E+00 -1.54439817E+00
 -8.90703818E-01  6.60214956E+00  1.35607671E-01  5.06742706E+00 -1.65332527E+01
