
                                 *****************
                                 * O   R   C   A *
                                 *****************

           --- An Ab Initio, DFT and Semiempirical electronic structure package ---

                  #######################################################
                  #                        -***-                        #
                  #  Department of molecular theory and spectroscopy    #
                  #              Directorship: Frank Neese              #
                  # Max Planck Institute for Chemical Energy Conversion #
                  #                  D-45470 Muelheim/Ruhr              #
                  #                       Germany                       #
                  #                                                     #
                  #                  All rights reserved                #
                  #                        -***-                        #
                  #######################################################


                         Program Version 4.0.1.2 - RELEASE -


 With contributions from (in alphabetic order):
   Daniel Aravena         : Magnetic Properties
   Michael Atanasov       : Ab Initio Ligand Field Theory
   Ute Becker             : Parallelization
   Martin Brehm           : Molecular dynamics
   Dmytro Bykov           : SCF Hessian
   Vijay G. Chilkuri      : MRCI spin determinant printing
   Dipayan Datta          : RHF DLPNO-CCSD density
   Achintya Kumar Dutta   : EOM-CC, STEOM-CC
   Dmitry Ganyushin       : Spin-Orbit,Spin-Spin,Magnetic field MRCI
   Yang Guo               : DLPNO-NEVPT2, CIM, IAO-localization
   Andreas Hansen         : Spin unrestricted coupled pair/coupled cluster methods
   Lee Huntington         : MR-EOM, pCC
   Robert Izsak           : Overlap fitted RIJCOSX, COSX-SCS-MP3, EOM
   Christian Kollmar      : KDIIS, OOCD, Brueckner-CCSD(T), CCSD density
   Simone Kossmann        : Meta GGA functionals, TD-DFT gradient, OOMP2, MP2 Hessian
   Martin Krupicka        : AUTO-CI
   Dagmar Lenk            : GEPOL surface
   Dimitrios Liakos       : Extrapolation schemes; parallel MDCI
   Dimitrios Manganas     : ROCIS; embedding schemes
   Dimitrios Pantazis     : SARC Basis sets
   Taras Petrenko         : DFT Hessian,TD-DFT gradient, ASA, ECA, R-Raman, ABS, FL, XAS/XES, NRVS
   Peter Pinski           : DLPNO-MP2
   Christoph Reimann      : Effective Core Potentials
   Marius Retegan         : Local ZFS, SOC
   Christoph Riplinger    : Optimizer, TS searches, QM/MM, DLPNO-CCSD(T), (RO)-DLPNO pert. Triples
   Tobias Risthaus        : Range-separated hybrids, TD-DFT gradient, RPA, STAB
   Michael Roemelt        : Restricted open shell CIS
   Masaaki Saitow         : Open-shell DLPNO
   Barbara Sandhoefer     : DKH picture change effects
   Kantharuban Sivalingam : CASSCF convergence, NEVPT2, FIC-MRCI
   Georgi Stoychev        : AutoAux
   Boris Wezisla          : Elementary symmetry handling
   Frank Wennmohs         : Technical directorship


 We gratefully acknowledge several colleagues who have allowed us to
 interface, adapt or use parts of their codes:
   Stefan Grimme, W. Hujo, H. Kruse,             : VdW corrections, initial TS optimization,
                  C. Bannwarth                     DFT functionals, gCP, sTDA/sTD-DF
   Ed Valeev                                     : LibInt (2-el integral package), F12 methods
   Garnet Chan, S. Sharma, J. Yang, R. Olivares  : DMRG
   Ulf Ekstrom                                   : XCFun DFT Library
   Mihaly Kallay                                 : mrcc  (arbitrary order and MRCC methods)
   Andreas Klamt, Michael Diedenhofen            : otool_cosmo (COSMO solvation model)
   Jiri Pittner, Ondrej Demel                    : Mk-CCSD
   Frank Weinhold                                : gennbo (NPA and NBO analysis)
   Christopher J. Cramer and Donald G. Truhlar   : smd solvation model


 Your calculation uses the libint2 library for the computation of 2-el integrals
 For citations please refer to: http://libint.valeyev.net

 This ORCA versions uses:
   CBLAS   interface :  Fast vector & matrix operations
   LAPACKE interface :  Fast linear algebra routines
   SCALAPACK package :  Parallel linear algebra routines


Your calculation utilizes the basis: STO-3G
   H-Ne       : W. J. Hehre, R. F. Stewart and J. A. Pople, J. Chem. Phys. 2657 (1969).
   Na-Ar      : W. J. Hehre, R. Ditchfield, R. F. Stewart and J. A. Pople, J. Chem. Phys. 2769 (1970).
   K,Ca,Ga-Kr : W. J. Pietro, B. A. Levy, W. J. Hehre and R. F. Stewart, J. Am. Chem. Soc. 19, 2225 (1980).
   Sc-Zn,Y-Cd : W. J. Pietro and W. J. Hehre, J. Comp. Chem. 4, 241 (1983).

================================================================================
                                        WARNINGS
                       Please study these warnings very carefully!
================================================================================

Warning: TCutStore was < 0. Adjusted to Thresh (uncritical)

WARNING: your system is open-shell and RHF/RKS was chosen
  ===> : WILL SWITCH to UHF/UKS


WARNING: Geometry Optimization
  ===> : Switching off AutoStart
         For restart on a previous wavefunction, please use MOREAD

INFO   : the flag for use of LIBINT has been found!

================================================================================
                                       INPUT FILE
================================================================================
NAME = TSB_4.inp
|  1> %pal nprocs 1 end
|  2> ! hf sto-3g TightSCF
|  3> ! Opt Freq
|  4> * xyz 0 2
|  5>   6     -1.253456 0.004771 -0.194865
|  6>   6     0.115483 -0.532345 0.262087
|  7>   8     1.196601 0.378333 0.017479
|  8>   1     -1.481037 1.120324 0.420062
|  9>   1     -2.071376 -0.654642 0.078783
| 10>   1     -1.286602 0.243828 -1.254314
| 11>   1     0.095019 -0.706697 1.341742
| 12>   1     0.300329 -1.502423 -0.220323
| 13>   1     1.189305 0.500556 -0.966206
| 14>   1     -1.647372 1.918651 0.861170
| 15> *
| 16> 
| 17> 
| 18>                          ****END OF INPUT****
================================================================================

                       *****************************
                       * Geometry Optimization Run *
                       *****************************

Geometry optimization settings:
Update method            Update   .... BFGS
Choice of coordinates    CoordSys .... Redundant Internals
Initial Hessian          InHess   .... Almoef's Model

Convergence Tolerances:
Energy Change            TolE     ....  5.0000e-06 Eh
Max. Gradient            TolMAXG  ....  3.0000e-04 Eh/bohr
RMS Gradient             TolRMSG  ....  1.0000e-04 Eh/bohr
Max. Displacement        TolMAXD  ....  4.0000e-03 bohr
RMS Displacement         TolRMSD  ....  2.0000e-03 bohr

------------------------------------------------------------------------------
                        ORCA OPTIMIZATION COORDINATE SETUP
------------------------------------------------------------------------------

The optimization will be done in new redundant internal coordinates
Making redundant internal coordinates   ...  (new redundants) done
Evaluating the initial hessian          ...  (Almloef) done
Evaluating the coordinates              ...  done
Calculating the B-matrix                .... done
Calculating the G-matrix                .... done
Diagonalizing the G-matrix              .... done
The first mode is                       ....   12
The number of degrees of freedom        ....   24

    -----------------------------------------------------------------
                    Redundant Internal Coordinates


    -----------------------------------------------------------------
         Definition                    Initial Value    Approx d2E/dq
    -----------------------------------------------------------------
      1. B(C   1,C   0)                  1.5399         0.360232   
      2. B(O   2,C   1)                  1.4346         0.475085   
      3. B(H   3,C   0)                  1.2940         0.170210   
      4. B(H   4,C   0)                  1.0857         0.365860   
      5. B(H   5,C   0)                  1.0866         0.364639   
      6. B(H   6,C   1)                  1.0938         0.355064   
      7. B(H   7,C   1)                  1.0991         0.348309   
      8. B(H   8,O   2)                  0.9913         0.463520   
      9. B(H   9,H   3)                  0.9271         0.125408   
     10. A(C   1,C   0,H   5)          113.1528         0.323052   
     11. A(H   3,C   0,H   4)          105.7441         0.259965   
     12. A(H   3,C   0,H   5)          105.5641         0.259836   
     13. A(C   1,C   0,H   4)          112.5249         0.323229   
     14. A(H   4,C   0,H   5)          110.8793         0.292141   
     15. A(C   1,C   0,H   3)          108.4234         0.285980   
     16. A(C   0,C   1,O   2)          113.4490         0.373952   
     17. A(H   6,C   1,H   7)          107.1993         0.288687   
     18. A(O   2,C   1,H   7)          111.0216         0.333582   
     19. A(C   0,C   1,H   7)          109.0946         0.320638   
     20. A(O   2,C   1,H   6)          106.4743         0.334647   
     21. A(C   0,C   1,H   6)          109.3817         0.321647   
     22. A(C   1,O   2,H   8)          104.0004         0.346883   
     23. L(C   0,H   3,H   9,C   1, 2) 180.2267         0.196285   
     24. L(C   0,H   3,H   9,C   1, 1) 180.1577         0.196285   
     25. D(H   6,C   1,C   0,H   5)    177.3114         0.010410   
     26. D(O   2,C   1,C   0,H   4)   -174.7383         0.010410   
     27. D(H   6,C   1,C   0,H   3)     60.5658         0.010410   
     28. D(O   2,C   1,C   0,H   3)    -58.1377         0.010410   
     29. D(O   2,C   1,C   0,H   5)     58.6079         0.010410   
     30. D(H   7,C   1,C   0,H   3)    177.5339         0.010410   
     31. D(H   7,C   1,C   0,H   4)     60.9334         0.010410   
     32. D(H   7,C   1,C   0,H   5)    -65.7205         0.010410   
     33. D(H   6,C   1,C   0,H   4)    -56.0348         0.010410   
     34. D(H   8,O   2,C   1,H   7)     62.9219         0.017798   
     35. D(H   8,O   2,C   1,H   6)    179.2805         0.017798   
     36. D(H   8,O   2,C   1,C   0)    -60.3554         0.017798   
    -----------------------------------------------------------------

Number of atoms                         .... 10
Number of degrees of freedom            .... 36

         *************************************************************
         *                GEOMETRY OPTIMIZATION CYCLE   1            *
         *************************************************************
---------------------------------
CARTESIAN COORDINATES (ANGSTROEM)
---------------------------------
  C     -1.253456    0.004771   -0.194865
  C      0.115483   -0.532345    0.262087
  O      1.196601    0.378333    0.017479
  H     -1.481037    1.120324    0.420062
  H     -2.071376   -0.654642    0.078783
  H     -1.286602    0.243828   -1.254314
  H      0.095019   -0.706697    1.341742
  H      0.300329   -1.502423   -0.220323
  H      1.189305    0.500556   -0.966206
  H     -1.647372    1.918651    0.861170

----------------------------
CARTESIAN COORDINATES (A.U.)
----------------------------
  NO LB      ZA    FRAG     MASS         X           Y           Z
   0 C     6.0000    0    12.011   -2.368689    0.009016   -0.368241
   1 C     6.0000    0    12.011    0.218231   -1.005986    0.495273
   2 O     8.0000    0    15.999    2.261248    0.714946    0.033031
   3 H     1.0000    0     1.008   -2.798754    2.117106    0.793802
   4 H     1.0000    0     1.008   -3.914333   -1.237094    0.148878
   5 H     1.0000    0     1.008   -2.431325    0.460768   -2.370310
   6 H     1.0000    0     1.008    0.179560   -1.335464    2.535525
   7 H     1.0000    0     1.008    0.567540   -2.839168   -0.416350
   8 H     1.0000    0     1.008    2.247461    0.945914   -1.825865
   9 H     1.0000    0     1.008   -3.113082    3.625725    1.627375

--------------------------------
INTERNAL COORDINATES (ANGSTROEM)
--------------------------------
 C      0   0   0     0.000000000000     0.00000000     0.00000000
 C      1   0   0     1.539900228418     0.00000000     0.00000000
 O      2   1   0     1.434567399348   113.44904294     0.00000000
 H      1   2   3     1.293980997812   108.42336444   301.86226933
 H      1   2   3     1.085680366808   112.52493201   185.26173869
 H      1   2   3     1.086590580746   113.15283392    58.60787229
 H      2   1   3     1.093833769009   109.38172728   118.70349732
 H      2   1   3     1.099062681515   109.09463294   235.67167561
 H      3   2   1     0.991275881160   104.00040071   299.64456410
 H      4   1   2     0.927129763743   179.78671424   222.22039147

---------------------------
INTERNAL COORDINATES (A.U.)
---------------------------
 C      0   0   0     0.000000000000     0.00000000     0.00000000
 C      1   0   0     2.909989705272     0.00000000     0.00000000
 O      2   1   0     2.710939505419   113.44904294     0.00000000
 H      1   2   3     2.445269708363   108.42336444   301.86226933
 H      1   2   3     2.051638562243   112.52493201   185.26173869
 H      1   2   3     2.053358617308   113.15283392    58.60787229
 H      2   1   3     2.067046259462   109.38172728   118.70349732
 H      2   1   3     2.076927472077   109.09463294   235.67167561
 H      3   2   1     1.873239938554   104.00040071   299.64456410
 H      4   1   2     1.752021344081   179.78671424   222.22039147

---------------------
BASIS SET INFORMATION
---------------------
There are 3 groups of distinct atoms

 Group   1 Type C   : 6s3p contracted to 2s1p pattern {33/3}
 Group   2 Type O   : 6s3p contracted to 2s1p pattern {33/3}
 Group   3 Type H   : 3s contracted to 1s pattern {3}

Atom   0C    basis set group =>   1
Atom   1C    basis set group =>   1
Atom   2O    basis set group =>   2
Atom   3H    basis set group =>   3
Atom   4H    basis set group =>   3
Atom   5H    basis set group =>   3
Atom   6H    basis set group =>   3
Atom   7H    basis set group =>   3
Atom   8H    basis set group =>   3
Atom   9H    basis set group =>   3
------------------------------------------------------------------------------
                           ORCA GTO INTEGRAL CALCULATION
------------------------------------------------------------------------------

                         BASIS SET STATISTICS AND STARTUP INFO

 # of primitive gaussian shells          ...   48
 # of primitive gaussian functions       ...   66
 # of contracted shells                  ...   16
 # of contracted basis functions         ...   22
 Highest angular momentum                ...    1
 Maximum contraction depth               ...    3
 Integral package used                   ... LIBINT
 Integral threshhold            Thresh   ...  2.500e-11
 Primitive cut-off              TCut     ...  2.500e-12


------------------------------ INTEGRAL EVALUATION ----------------------------


 * One electron integrals 
 Pre-screening matrix                    ... done
 Shell pair data                         ... done (   0.000 sec)

-------------------------------------------------------------------------------
                                 ORCA SCF
-------------------------------------------------------------------------------

------------
SCF SETTINGS
------------
Hamiltonian:
 Ab initio Hamiltonian  Method          .... Hartree-Fock(GTOs)


General Settings:
 Integral files         IntName         .... TSB_4
 Hartree-Fock type      HFTyp           .... UHF
 Total Charge           Charge          ....    0
 Multiplicity           Mult            ....    2
 Number of Electrons    NEL             ....   27
 Basis Dimension        Dim             ....   22
 Nuclear Repulsion      ENuc            ....     85.4550106875 Eh

Convergence Acceleration:
 DIIS                   CNVDIIS         .... on
   Start iteration      DIISMaxIt       ....    12
   Startup error        DIISStart       ....  0.200000
   # of expansion vecs  DIISMaxEq       ....     5
   Bias factor          DIISBfac        ....   1.050
   Max. coefficient     DIISMaxC        ....  10.000
 Newton-Raphson         CNVNR           .... off
 SOSCF                  CNVSOSCF        .... off
 Level Shifting         CNVShift        .... on
   Level shift para.    LevelShift      ....    0.2500
   Turn off err/grad.   ShiftErr        ....    0.0010
 Zerner damping         CNVZerner       .... off
 Static damping         CNVDamp         .... on
   Fraction old density DampFac         ....    0.7000
   Max. Damping (<1)    DampMax         ....    0.9800
   Min. Damping (>=0)   DampMin         ....    0.0000
   Turn off err/grad.   DampErr         ....    0.1000
 Fernandez-Rico         CNVRico         .... off

SCF Procedure:
 Maximum # iterations   MaxIter         ....   125
 SCF integral mode      SCFMode         .... Direct
   Integral package                     .... LIBINT
 Reset frequeny         DirectResetFreq ....    20
 Integral Threshold     Thresh          ....  2.500e-11 Eh
 Primitive CutOff       TCut            ....  2.500e-12 Eh

Convergence Tolerance:
 Convergence Check Mode ConvCheckMode   .... Total+1el-Energy
 Convergence forced     ConvForced      .... 0
 Energy Change          TolE            ....  1.000e-08 Eh
 1-El. energy change                    ....  1.000e-05 Eh
 DIIS Error             TolErr          ....  5.000e-07


Diagonalization of the overlap matrix:
Smallest eigenvalue                        ... 2.181e-01
Time for diagonalization                   ...    0.000 sec
Threshold for overlap eigenvalues          ... 1.000e-08
Number of eigenvalues below threshold      ... 0
Time for construction of square roots      ...    0.000 sec
Total time needed                          ...    0.000 sec

-------------------
DFT GRID GENERATION
-------------------

General Integration Accuracy     IntAcc      ...  4.340
Radial Grid Type                 RadialGrid  ... Gauss-Chebyshev
Angular Grid (max. acc.)         AngularGrid ... Lebedev-110
Angular grid pruning method      GridPruning ... 3 (G Style)
Weight generation scheme         WeightScheme... Becke
Basis function cutoff            BFCut       ...    1.0000e-11
Integration weight cutoff        WCut        ...    1.0000e-14
Grids for H and He will be reduced by one unit

# of grid points (after initial pruning)     ...  10586 (   0.0 sec)
# of grid points (after weights+screening)   ...  10092 (   0.0 sec)
nearest neighbour list constructed           ...    0.0 sec
Grid point re-assignment to atoms done       ...    0.0 sec
Grid point division into batches done        ...    0.0 sec
Reduced shell lists constructed in    0.1 sec

Total number of grid points                  ...    10092
Total number of batches                      ...      165
Average number of points per batch           ...       61
Average number of grid points per atom       ...     1009
Average number of shells per batch           ...    13.63 (85.20%)
Average number of basis functions per batch  ...    19.37 (88.03%)
Average number of large shells per batch     ...    12.67 (92.97%)
Average number of large basis fcns per batch ...    18.11 (93.50%)
Maximum spatial batch extension              ...  19.62, 18.72, 26.46 au
Average spatial batch extension              ...   4.13,  4.00,  3.91 au

Time for grid setup =    0.061 sec

------------------------------
INITIAL GUESS: MODEL POTENTIAL
------------------------------
Loading Hartree-Fock densities                     ... done
Calculating cut-offs                               ... done
Setting up the integral package                    ... done
Initializing the effective Hamiltonian             ... done
Starting the Coulomb interaction                   ... done (   0.0 sec)
Reading the grid                                   ... done
Mapping shells                                     ... done
Starting the XC term evaluation                    ... done (   0.1 sec)
Transforming the Hamiltonian                       ... done (   0.0 sec)
Diagonalizing the Hamiltonian                      ... done (   0.0 sec)
Back transforming the eigenvectors                 ... done (   0.0 sec)
Now organizing SCF variables                       ... done
                      ------------------
                      INITIAL GUESS DONE (   0.2 sec)
                      ------------------
--------------
SCF ITERATIONS
--------------
ITER       Energy         Delta-E        Max-DP      RMS-DP      [F,P]     Damp
               ***  Starting incremental Fock matrix formation  ***
  0   -152.4690923661   0.000000000000 0.03156100  0.00391347  0.1881648 0.7000
  1   -152.4958036466  -0.026711280515 0.02786234  0.00335314  0.1416039 0.7000
                               ***Turning on DIIS***
  2   -152.5150194374  -0.019215790863 0.02086357  0.00243190  0.1009954 0.7000
  3   -152.8210489180  -0.306029480520 0.05821675  0.00589507  0.0712088 0.0000
  4   -152.5598330464   0.261215871525 0.01814385  0.00109474  0.0031162 0.0000
  5   -152.5614928054  -0.001659758948 0.01484794  0.00086467  0.0014149 0.0000
  6   -152.5628430803  -0.001350274932 0.00936958  0.00060021  0.0008365 0.0000
  7   -152.5638591083  -0.001016028033 0.00193175  0.00019585  0.0003167 0.0000
  8   -152.5637591224   0.000099985943 0.00089284  0.00009778  0.0001051 0.0000
  9   -152.5638958458  -0.000136723360 0.00032437  0.00003817  0.0000147 0.0000
 10   -152.5639128214  -0.000016975664 0.00015282  0.00001890  0.0000109 0.0000
 11   -152.5639179343  -0.000005112835 0.00014791  0.00001905  0.0000112 0.0000
 12   -152.5639227428  -0.000004808541 0.00011214  0.00001495  0.0000062 0.0000
                            ***DIIS convergence achieved***

               *****************************************************
               *                     SUCCESS                       *
               *           SCF CONVERGED AFTER  13 CYCLES          *
               *****************************************************


----------------
TOTAL SCF ENERGY
----------------

Total Energy       :         -152.56391363 Eh           -4151.47515 eV

Components:
Nuclear Repulsion  :           85.45501069 Eh            2325.34906 eV
Electronic Energy  :         -238.01892431 Eh           -6476.82421 eV
One Electron Energy:         -377.81364498 Eh          -10280.83195 eV
Two Electron Energy:          139.79472067 Eh            3804.00774 eV

Virial components:
Potential Energy   :         -304.16654499 Eh           -8276.79247 eV
Kinetic Energy     :          151.60263137 Eh            4125.31733 eV
Virial Ratio       :            2.00634080


---------------
SCF CONVERGENCE
---------------

  Last Energy change         ...    9.1174e-06  Tolerance :   1.0000e-08
  Last MAX-Density change    ...    9.3415e-06  Tolerance :   1.0000e-07
  Last RMS-Density change    ...    7.6776e-07  Tolerance :   5.0000e-09
  Last DIIS Error            ...    7.4192e-07  Tolerance :   5.0000e-07

             **** THE GBW FILE WAS UPDATED (TSB_4.gbw) ****
             **** DENSITY FILE WAS UPDATED (TSB_4.scfp.tmp) ****
             **** ENERGY FILE WAS UPDATED (TSB_4.en.tmp) ****
----------------------
UHF SPIN CONTAMINATION
----------------------

Expectation value of <S**2>     :     0.787191
Ideal value S*(S+1) for S=0.5   :     0.750000
Deviation                       :     0.037191

----------------
ORBITAL ENERGIES
----------------
                 SPIN UP ORBITALS
  NO   OCC          E(Eh)            E(eV) 
   0   1.0000     -20.260321      -551.3114 
   1   1.0000     -11.092671      -301.8469 
   2   1.0000     -11.043881      -300.5193 
   3   1.0000      -1.280431       -34.8423 
   4   1.0000      -0.978886       -26.6368 
   5   1.0000      -0.809912       -22.0388 
   6   1.0000      -0.645910       -17.5761 
   7   1.0000      -0.580848       -15.8057 
   8   1.0000      -0.571664       -15.5558 
   9   1.0000      -0.547860       -14.9080 
  10   1.0000      -0.481961       -13.1148 
  11   1.0000      -0.415166       -11.2972 
  12   1.0000      -0.363493        -9.8911 
  13   1.0000      -0.305863        -8.3229 
  14   0.0000       0.562528        15.3072 
  15   0.0000       0.615535        16.7495 
  16   0.0000       0.651025        17.7153 
  17   0.0000       0.688928        18.7467 
  18   0.0000       0.725913        19.7531 
  19   0.0000       0.745114        20.2756 
  20   0.0000       0.765925        20.8419 
  21   0.0000       0.816887        22.2286 

                 SPIN DOWN ORBITALS
  NO   OCC          E(Eh)            E(eV) 
   0   1.0000     -20.260203      -551.3082 
   1   1.0000     -11.094557      -301.8983 
   2   1.0000     -11.022711      -299.9432 
   3   1.0000      -1.279808       -34.8253 
   4   1.0000      -0.943006       -25.6605 
   5   1.0000      -0.785893       -21.3852 
   6   1.0000      -0.614340       -16.7170 
   7   1.0000      -0.566423       -15.4132 
   8   1.0000      -0.542813       -14.7707 
   9   1.0000      -0.496199       -13.5023 
  10   1.0000      -0.476636       -12.9699 
  11   1.0000      -0.408911       -11.1270 
  12   1.0000      -0.353836        -9.6284 
  13   0.0000       0.240565         6.5461 
  14   0.0000       0.563994        15.3471 
  15   0.0000       0.621414        16.9095 
  16   0.0000       0.671354        18.2685 
  17   0.0000       0.706934        19.2367 
  18   0.0000       0.730922        19.8894 
  19   0.0000       0.759215        20.6593 
  20   0.0000       0.784972        21.3602 
  21   0.0000       0.909705        24.7543 

                    ********************************
                    * MULLIKEN POPULATION ANALYSIS *
                    ********************************

--------------------------------------------
MULLIKEN ATOMIC CHARGES AND SPIN POPULATIONS
--------------------------------------------
   0 C :   -0.143405    0.731729
   1 C :    0.002415   -0.068731
   2 O :   -0.283721    0.005550
   3 H :    0.038014   -0.252680
   4 H :    0.062344   -0.045237
   5 H :    0.053696   -0.043649
   6 H :    0.066890    0.007810
   7 H :    0.050331    0.024190
   8 H :    0.171009   -0.000476
   9 H :   -0.017575    0.641494
Sum of atomic charges         :    0.0000000
Sum of atomic spin populations:    1.0000000

-----------------------------------------------------
MULLIKEN REDUCED ORBITAL CHARGES AND SPIN POPULATIONS
-----------------------------------------------------
CHARGE
  0 C s       :     3.209942  s :     3.209942
      pz      :     0.990408  p :     2.933463
      px      :     0.966293
      py      :     0.976763
  1 C s       :     3.168830  s :     3.168830
      pz      :     1.026850  p :     2.828755
      px      :     0.875574
      py      :     0.926331
  2 O s       :     3.836485  s :     3.836485
      pz      :     1.235546  p :     4.447236
      px      :     1.549467
      py      :     1.662223
  3 H s       :     0.961986  s :     0.961986
  4 H s       :     0.937656  s :     0.937656
  5 H s       :     0.946304  s :     0.946304
  6 H s       :     0.933110  s :     0.933110
  7 H s       :     0.949669  s :     0.949669
  8 H s       :     0.828991  s :     0.828991
  9 H s       :     1.017575  s :     1.017575

SPIN
  0 C s       :     0.123217  s :     0.123217
      pz      :     0.156569  p :     0.608512
      px      :     0.055733
      py      :     0.396209
  1 C s       :    -0.016029  s :    -0.016029
      pz      :    -0.011460  p :    -0.052702
      px      :    -0.024146
      py      :    -0.017096
  2 O s       :     0.000171  s :     0.000171
      pz      :     0.000327  p :     0.005379
      px      :     0.001308
      py      :     0.003744
  3 H s       :    -0.252680  s :    -0.252680
  4 H s       :    -0.045237  s :    -0.045237
  5 H s       :    -0.043649  s :    -0.043649
  6 H s       :     0.007810  s :     0.007810
  7 H s       :     0.024190  s :     0.024190
  8 H s       :    -0.000476  s :    -0.000476
  9 H s       :     0.641494  s :     0.641494


                     *******************************
                     * LOEWDIN POPULATION ANALYSIS *
                     *******************************

-------------------------------------------
LOEWDIN ATOMIC CHARGES AND SPIN POPULATIONS
-------------------------------------------
   0 C :   -0.082002    0.669207
   1 C :    0.048548   -0.053367
   2 O :   -0.203393    0.004893
   3 H :    0.046431   -0.178325
   4 H :    0.031565   -0.033988
   5 H :    0.024305   -0.032761
   6 H :    0.031147    0.006584
   7 H :    0.016238    0.021164
   8 H :    0.118746   -0.000420
   9 H :   -0.031584    0.597014

----------------------------------------------------
LOEWDIN REDUCED ORBITAL CHARGES AND SPIN POPULATIONS
----------------------------------------------------
CHARGE
  0 C s       :     3.059434  s :     3.059434
      pz      :     1.017527  p :     3.022568
      px      :     1.003688
      py      :     1.001353
  1 C s       :     3.028227  s :     3.028227
      pz      :     1.045847  p :     2.923225
      px      :     0.919839
      py      :     0.957538
  2 O s       :     3.712610  s :     3.712610
      pz      :     1.253856  p :     4.490783
      px      :     1.563679
      py      :     1.673248
  3 H s       :     0.953569  s :     0.953569
  4 H s       :     0.968435  s :     0.968435
  5 H s       :     0.975695  s :     0.975695
  6 H s       :     0.968853  s :     0.968853
  7 H s       :     0.983762  s :     0.983762
  8 H s       :     0.881254  s :     0.881254
  9 H s       :     1.031584  s :     1.031584

SPIN
  0 C s       :     0.096265  s :     0.096265
      pz      :     0.145804  p :     0.572942
      px      :     0.047305
      py      :     0.379833
  1 C s       :    -0.010456  s :    -0.010456
      pz      :    -0.009300  p :    -0.042911
      px      :    -0.019863
      py      :    -0.013748
  2 O s       :    -0.000050  s :    -0.000050
      pz      :     0.000259  p :     0.004943
      px      :     0.001183
      py      :     0.003501
  3 H s       :    -0.178325  s :    -0.178325
  4 H s       :    -0.033988  s :    -0.033988
  5 H s       :    -0.032761  s :    -0.032761
  6 H s       :     0.006584  s :     0.006584
  7 H s       :     0.021164  s :     0.021164
  8 H s       :    -0.000420  s :    -0.000420
  9 H s       :     0.597014  s :     0.597014


                      *****************************
                      * MAYER POPULATION ANALYSIS *
                      *****************************

  NA   - Mulliken gross atomic population
  ZA   - Total nuclear charge
  QA   - Mulliken gross atomic charge
  VA   - Mayer's total valence
  BVA  - Mayer's bonded valence
  FA   - Mayer's free valence

  ATOM       NA         ZA         QA         VA         BVA        FA
  0 C      6.1434     6.0000    -0.1434     3.9518     3.5985     0.3533
  1 C      5.9976     6.0000     0.0024     3.9327     3.9306     0.0020
  2 O      8.2837     8.0000    -0.2837     1.9943     1.9942     0.0001
  3 H      0.9620     1.0000     0.0380     0.9986     0.9347     0.0638
  4 H      0.9377     1.0000     0.0623     0.9961     0.9941     0.0020
  5 H      0.9463     1.0000     0.0537     0.9971     0.9952     0.0019
  6 H      0.9331     1.0000     0.0669     0.9955     0.9955     0.0001
  7 H      0.9497     1.0000     0.0503     0.9975     0.9969     0.0006
  8 H      0.8290     1.0000     0.1710     0.9708     0.9708     0.0000
  9 H      1.0176     1.0000    -0.0176     0.9997     0.5882     0.4115

  Mayer bond orders larger than 0.1
B(  0-C ,  1-C ) :   0.9888 B(  0-C ,  3-H ) :   0.4865 B(  0-C ,  4-H ) :   0.9769 
B(  0-C ,  5-H ) :   0.9776 B(  0-C ,  9-H ) :   0.1339 B(  1-C ,  2-O ) :   0.9885 
B(  1-C ,  6-H ) :   0.9702 B(  1-C ,  7-H ) :   0.9599 B(  2-O ,  8-H ) :   0.9496 
B(  3-H ,  9-H ) :   0.4418 

-------
TIMINGS
-------

Total SCF time: 0 days 0 hours 0 min 1 sec 

Total time                  ....       1.581 sec
Sum of individual times     ....       1.578 sec  ( 99.8%)

Fock matrix formation       ....       1.380 sec  ( 87.3%)
Diagonalization             ....       0.003 sec  (  0.2%)
Density matrix formation    ....       0.000 sec  (  0.0%)
Population analysis         ....       0.001 sec  (  0.0%)
Initial guess               ....       0.132 sec  (  8.4%)
Orbital Transformation      ....       0.000 sec  (  0.0%)
Orbital Orthonormalization  ....       0.000 sec  (  0.0%)
DIIS solution               ....       0.001 sec  (  0.1%)

-------------------------   --------------------
FINAL SINGLE POINT ENERGY      -152.563913625366
-------------------------   --------------------

------------------------------------------------------------------------------
                         ORCA SCF GRADIENT CALCULATION
------------------------------------------------------------------------------

Gradient of the Hartree-Fock SCF energy:
Hartree-Fock type                ... UHF
Number of operators              ...    2
Number of atoms                  ...   10
Basis set dimensions             ...   22
Integral neglect threshold       ... 2.5e-11
Integral primitive cutoff        ... 2.5e-12

Nuclear repulsion gradient       ... done
One Electron Gradient            ... done
Pre-screening matrix             ... done
Starting the two electron gradient:
Two electron gradient done

------------------
CARTESIAN GRADIENT
------------------

   1   C   :   -0.000007238    0.000025468    0.000014373
   2   C   :   -0.000008677   -0.000005508   -0.000006622
   3   O   :    0.000001544    0.000001709   -0.000007489
   4   H   :    0.000008219   -0.000013676   -0.000005395
   5   H   :    0.000005688   -0.000008910   -0.000004291
   6   H   :    0.000005343   -0.000013271   -0.000004372
   7   H   :   -0.000002627   -0.000000482    0.000000379
   8   H   :    0.000000676    0.000000289    0.000000481
   9   H   :    0.000000644    0.000001538    0.000005392
  10   H   :   -0.000003571    0.000012843    0.000007544

Difference to translation invariance:
           :    0.0000000000    0.0000000000    0.0000000000

Norm of the cartesian gradient     ...    0.0000450613
RMS gradient                       ...    0.0000082270
MAX gradient                       ...    0.0000254675

-------
TIMINGS
-------

Total SCF gradient time            ...        0.125 sec

One electron gradient       ....       0.004 sec  (  3.4%)
Prescreening matrices       ....       0.002 sec  (  1.6%)
Two electron gradient       ....       0.061 sec  ( 48.5%)
------------------------------------------------------------------------------
                         ORCA GEOMETRY RELAXATION STEP
------------------------------------------------------------------------------

Reading the OPT-File                    .... done
Getting information on internals        .... done
Copying old internal coords+grads       .... done
Making the new internal coordinates     .... (new redundants).... done
Validating the new internal coordinates .... (new redundants).... done
Calculating the B-matrix                .... done
Calculating the G,G- and P matrices     .... done
Transforming gradient to internals      .... done
Projecting the internal gradient        .... done
Number of atoms                         ....  10
Number of internal coordinates          ....  36
Current Energy                          ....  -152.563913625 Eh
Current gradient norm                   ....     0.000045061 Eh/bohr
Maximum allowed component of the step   ....  0.300
Current trust radius                    ....  0.300
Evaluating the initial hessian          ....  (Almloef) done
Projecting the Hessian                  .... done
Forming the augmented Hessian           .... done
Diagonalizing the augmented Hessian     .... done
Last element of RFO vector              ....  0.999999964
Lowest eigenvalues of augmented Hessian:
 -0.000000006  0.010410017  0.017797750  0.091782859  0.096370154
Length of the computed step             ....  0.000269091
The final length of the internal step   ....  0.000269091
Converting the step to cartesian space:
 Initial RMS(Int)=    0.0000448485
Transforming coordinates:
 Iter   0:  RMS(Cart)=    0.0000543708 RMS(Int)=    0.0000448478
 Iter   1:  RMS(Cart)=    0.0000000836 RMS(Int)=    0.0000000886
done
Storing new coordinates                 .... done

                                .--------------------.
          ----------------------|Geometry convergence|-------------------------
          Item                value                   Tolerance       Converged
          ---------------------------------------------------------------------
          RMS gradient        0.0000051277            0.0001000000      YES
          MAX gradient        0.0000152790            0.0003000000      YES
          RMS step            0.0000448485            0.0020000000      YES
          MAX step            0.0001218338            0.0040000000      YES
          ........................................................
          Max(Bonds)      0.0001      Max(Angles)    0.00
          Max(Dihed)        0.01      Max(Improp)    0.00
          ---------------------------------------------------------------------

                    ***********************HURRAY********************
                    ***        THE OPTIMIZATION HAS CONVERGED     ***
                    *************************************************


    ---------------------------------------------------------------------------
                         Redundant Internal Coordinates

                          --- Optimized Parameters ---  
                            (Angstroem and degrees)

        Definition                    OldVal   dE/dq     Step     FinalVal
    ----------------------------------------------------------------------------
     1. B(C   1,C   0)                1.5399 -0.000009  0.0000    1.5399   
     2. B(O   2,C   1)                1.4346  0.000004 -0.0000    1.4346   
     3. B(H   3,C   0)                1.2940 -0.000001  0.0000    1.2940   
     4. B(H   4,C   0)                1.0857  0.000000 -0.0000    1.0857   
     5. B(H   5,C   0)                1.0866  0.000001 -0.0000    1.0866   
     6. B(H   6,C   1)                1.0938  0.000000 -0.0000    1.0938   
     7. B(H   7,C   1)                1.0991 -0.000000  0.0000    1.0991   
     8. B(H   8,O   2)                0.9913 -0.000005  0.0000    0.9913   
     9. B(H   9,H   3)                0.9271  0.000015 -0.0001    0.9271   
    10. A(C   1,C   0,H   5)          113.15 -0.000011    0.00    113.16   
    11. A(H   3,C   0,H   4)          105.74  0.000008   -0.00    105.74   
    12. A(H   3,C   0,H   5)          105.56  0.000011   -0.00    105.56   
    13. A(C   1,C   0,H   4)          112.52 -0.000008    0.00    112.53   
    14. A(H   4,C   0,H   5)          110.88  0.000005    0.00    110.88   
    15. A(C   1,C   0,H   3)          108.42 -0.000002   -0.00    108.42   
    16. A(C   0,C   1,O   2)          113.45 -0.000002    0.00    113.45   
    17. A(H   6,C   1,H   7)          107.20  0.000000   -0.00    107.20   
    18. A(O   2,C   1,H   7)          111.02  0.000000   -0.00    111.02   
    19. A(C   0,C   1,H   7)          109.09  0.000001   -0.00    109.09   
    20. A(O   2,C   1,H   6)          106.47  0.000002   -0.00    106.47   
    21. A(C   0,C   1,H   6)          109.38 -0.000002    0.00    109.38   
    22. A(C   1,O   2,H   8)          104.00  0.000003   -0.00    104.00   
    23. L(C   0,H   3,H   9,C   1, 2) 180.23  0.000000   -0.00    180.23   
    24. L(C   0,H   3,H   9,C   1, 1) 180.16  0.000001   -0.00    180.16   
    25. D(H   6,C   1,C   0,H   5)    177.31  0.000006   -0.01    177.31   
    26. D(O   2,C   1,C   0,H   4)   -174.74 -0.000004    0.00   -174.74   
    27. D(H   6,C   1,C   0,H   3)     60.57  0.000000   -0.00     60.56   
    28. D(O   2,C   1,C   0,H   3)    -58.14  0.000000   -0.00    -58.14   
    29. D(O   2,C   1,C   0,H   5)     58.61  0.000006   -0.01     58.60   
    30. D(H   7,C   1,C   0,H   3)    177.53 -0.000000   -0.00    177.53   
    31. D(H   7,C   1,C   0,H   4)     60.93 -0.000005    0.00     60.93   
    32. D(H   7,C   1,C   0,H   5)    -65.72  0.000005   -0.01    -65.73   
    33. D(H   6,C   1,C   0,H   4)    -56.03 -0.000004    0.00    -56.03   
    34. D(H   8,O   2,C   1,H   7)     62.92  0.000001   -0.00     62.92   
    35. D(H   8,O   2,C   1,H   6)    179.28  0.000002   -0.00    179.28   
    36. D(H   8,O   2,C   1,C   0)    -60.36 -0.000000   -0.00    -60.36   
    ----------------------------------------------------------------------------
                 *******************************************************
                 *** FINAL ENERGY EVALUATION AT THE STATIONARY POINT ***
                 ***               (AFTER    1 CYCLES)               ***
                 *******************************************************
---------------------------------
CARTESIAN COORDINATES (ANGSTROEM)
---------------------------------
  C     -1.253458    0.004767   -0.194878
  C      0.115495   -0.532334    0.262096
  O      1.196609    0.378337    0.017468
  H     -1.481055    1.120307    0.420070
  H     -2.071405   -0.654613    0.078770
  H     -1.286621    0.243908   -1.254305
  H      0.095038   -0.706661    1.341754
  H      0.300344   -1.502422   -0.220293
  H      1.189333    0.500498   -0.966230
  H     -1.647386    1.918569    0.861163

----------------------------
CARTESIAN COORDINATES (A.U.)
----------------------------
  NO LB      ZA    FRAG     MASS         X           Y           Z
   0 C     6.0000    0    12.011   -2.368693    0.009008   -0.368265
   1 C     6.0000    0    12.011    0.218253   -1.005965    0.495290
   2 O     8.0000    0    15.999    2.261263    0.714952    0.033011
   3 H     1.0000    0     1.008   -2.798789    2.117074    0.793817
   4 H     1.0000    0     1.008   -3.914387   -1.237040    0.148853
   5 H     1.0000    0     1.008   -2.431362    0.460920   -2.370293
   6 H     1.0000    0     1.008    0.179596   -1.335397    2.535548
   7 H     1.0000    0     1.008    0.567568   -2.839165   -0.416294
   8 H     1.0000    0     1.008    2.247514    0.945803   -1.825911
   9 H     1.0000    0     1.008   -3.113108    3.625570    1.627362

--------------------------------
INTERNAL COORDINATES (ANGSTROEM)
--------------------------------
 C      0   0   0     0.000000000000     0.00000000     0.00000000
 C      1   0   0     1.539913410645     0.00000000     0.00000000
 O      2   1   0     1.434562844026   113.44929538     0.00000000
 H      1   2   3     1.293982659135   108.42253481   301.85962679
 H      1   2   3     1.085680296425   112.52731688   185.26187447
 H      1   2   3     1.086588866779   113.15558919    58.60175854
 H      2   1   3     1.093833024718   109.38227362   118.70364800
 H      2   1   3     1.099063225063   109.09434044   235.67195686
 H      3   2   1     0.991281783206   103.99982498   299.64225895
 H      4   1   2     0.927065292045   179.78697588   222.26436331

---------------------------
INTERNAL COORDINATES (A.U.)
---------------------------
 C      0   0   0     0.000000000000     0.00000000     0.00000000
 C      1   0   0     2.910014616071     0.00000000     0.00000000
 O      2   1   0     2.710930897109   113.44929538     0.00000000
 H      1   2   3     2.445272847809   108.42253481   301.85962679
 H      1   2   3     2.051638429237   112.52731688   185.26187447
 H      1   2   3     2.053355378380   113.15558919    58.60175854
 H      2   1   3     2.067044852955   109.38227362   118.70364800
 H      2   1   3     2.076928499234   109.09434044   235.67195686
 H      3   2   1     1.873251091805   103.99982498   299.64225895
 H      4   1   2     1.751899510229   179.78697588   222.26436331

---------------------
BASIS SET INFORMATION
---------------------
There are 3 groups of distinct atoms

 Group   1 Type C   : 6s3p contracted to 2s1p pattern {33/3}
 Group   2 Type O   : 6s3p contracted to 2s1p pattern {33/3}
 Group   3 Type H   : 3s contracted to 1s pattern {3}

Atom   0C    basis set group =>   1
Atom   1C    basis set group =>   1
Atom   2O    basis set group =>   2
Atom   3H    basis set group =>   3
Atom   4H    basis set group =>   3
Atom   5H    basis set group =>   3
Atom   6H    basis set group =>   3
Atom   7H    basis set group =>   3
Atom   8H    basis set group =>   3
Atom   9H    basis set group =>   3
------------------------------------------------------------------------------
                           ORCA GTO INTEGRAL CALCULATION
------------------------------------------------------------------------------

                         BASIS SET STATISTICS AND STARTUP INFO

 # of primitive gaussian shells          ...   48
 # of primitive gaussian functions       ...   66
 # of contracted shells                  ...   16
 # of contracted basis functions         ...   22
 Highest angular momentum                ...    1
 Maximum contraction depth               ...    3
 Integral package used                   ... LIBINT
 Integral threshhold            Thresh   ...  2.500e-11
 Primitive cut-off              TCut     ...  2.500e-12


------------------------------ INTEGRAL EVALUATION ----------------------------


 * One electron integrals 
 Pre-screening matrix                    ... done
 Shell pair data                         ... done (   0.000 sec)

-------------------------------------------------------------------------------
                                 ORCA SCF
-------------------------------------------------------------------------------

------------
SCF SETTINGS
------------
Hamiltonian:
 Ab initio Hamiltonian  Method          .... Hartree-Fock(GTOs)


General Settings:
 Integral files         IntName         .... TSB_4
 Hartree-Fock type      HFTyp           .... UHF
 Total Charge           Charge          ....    0
 Multiplicity           Mult            ....    2
 Number of Electrons    NEL             ....   27
 Basis Dimension        Dim             ....   22
 Nuclear Repulsion      ENuc            ....     85.4549205810 Eh

Convergence Acceleration:
 DIIS                   CNVDIIS         .... on
   Start iteration      DIISMaxIt       ....    12
   Startup error        DIISStart       ....  0.200000
   # of expansion vecs  DIISMaxEq       ....     5
   Bias factor          DIISBfac        ....   1.050
   Max. coefficient     DIISMaxC        ....  10.000
 Newton-Raphson         CNVNR           .... off
 SOSCF                  CNVSOSCF        .... off
 Level Shifting         CNVShift        .... on
   Level shift para.    LevelShift      ....    0.2500
   Turn off err/grad.   ShiftErr        ....    0.0010
 Zerner damping         CNVZerner       .... off
 Static damping         CNVDamp         .... on
   Fraction old density DampFac         ....    0.7000
   Max. Damping (<1)    DampMax         ....    0.9800
   Min. Damping (>=0)   DampMin         ....    0.0000
   Turn off err/grad.   DampErr         ....    0.1000
 Fernandez-Rico         CNVRico         .... off

SCF Procedure:
 Maximum # iterations   MaxIter         ....   125
 SCF integral mode      SCFMode         .... Direct
   Integral package                     .... LIBINT
 Reset frequeny         DirectResetFreq ....    20
 Integral Threshold     Thresh          ....  2.500e-11 Eh
 Primitive CutOff       TCut            ....  2.500e-12 Eh

Convergence Tolerance:
 Convergence Check Mode ConvCheckMode   .... Total+1el-Energy
 Convergence forced     ConvForced      .... 0
 Energy Change          TolE            ....  1.000e-08 Eh
 1-El. energy change                    ....  1.000e-05 Eh
 DIIS Error             TolErr          ....  5.000e-07


Diagonalization of the overlap matrix:
Smallest eigenvalue                        ... 2.181e-01
Time for diagonalization                   ...    0.000 sec
Threshold for overlap eigenvalues          ... 1.000e-08
Number of eigenvalues below threshold      ... 0
Time for construction of square roots      ...    0.000 sec
Total time needed                          ...    0.000 sec

---------------------
INITIAL GUESS: MOREAD
---------------------
Guess MOs are being read from file: TSB_4.gbw
Input Geometry matches current geometry (good)
Input basis set matches current basis set (good)
MOs were renormalized
MOs were reorthogonalized (Cholesky)
                      ------------------
                      INITIAL GUESS DONE (   0.0 sec)
                      ------------------
--------------
SCF ITERATIONS
--------------
ITER       Energy         Delta-E        Max-DP      RMS-DP      [F,P]     Damp
               ***  Starting incremental Fock matrix formation  ***
  0   -152.5639127642   0.000000000000 0.00000359  0.00000040  0.0000144 0.7000
                 **** Energy Check signals convergence ****

               *****************************************************
               *                     SUCCESS                       *
               *           SCF CONVERGED AFTER   1 CYCLES          *
               *****************************************************


----------------
TOTAL SCF ENERGY
----------------

Total Energy       :         -152.56391276 Eh           -4151.47512 eV

Components:
Nuclear Repulsion  :           85.45492058 Eh            2325.34661 eV
Electronic Energy  :         -238.01883335 Eh           -6476.82173 eV
One Electron Energy:         -377.81346048 Eh          -10280.82693 eV
Two Electron Energy:          139.79462713 Eh            3804.00520 eV

Virial components:
Potential Energy   :         -304.16654908 Eh           -8276.79258 eV
Kinetic Energy     :          151.60263632 Eh            4125.31746 eV
Virial Ratio       :            2.00634076


---------------
SCF CONVERGENCE
---------------

  Last Energy change         ...   -2.3692e-10  Tolerance :   1.0000e-08
  Last MAX-Density change    ...    3.6362e-06  Tolerance :   1.0000e-07
  Last RMS-Density change    ...    4.0885e-07  Tolerance :   5.0000e-09
  Last DIIS Error            ...    1.2449e-05  Tolerance :   5.0000e-07

             **** THE GBW FILE WAS UPDATED (TSB_4.gbw) ****
             **** DENSITY FILE WAS UPDATED (TSB_4.scfp.tmp) ****
             **** ENERGY FILE WAS UPDATED (TSB_4.en.tmp) ****
----------------------
UHF SPIN CONTAMINATION
----------------------

Expectation value of <S**2>     :     0.787188
Ideal value S*(S+1) for S=0.5   :     0.750000
Deviation                       :     0.037188

----------------
ORBITAL ENERGIES
----------------
                 SPIN UP ORBITALS
  NO   OCC          E(Eh)            E(eV) 
   0   1.0000     -20.260322      -551.3114 
   1   1.0000     -11.092671      -301.8469 
   2   1.0000     -11.043876      -300.5191 
   3   1.0000      -1.280432       -34.8423 
   4   1.0000      -0.978881       -26.6367 
   5   1.0000      -0.809915       -22.0389 
   6   1.0000      -0.645913       -17.5762 
   7   1.0000      -0.580849       -15.8057 
   8   1.0000      -0.571667       -15.5559 
   9   1.0000      -0.547858       -14.9080 
  10   1.0000      -0.481964       -13.1149 
  11   1.0000      -0.415168       -11.2973 
  12   1.0000      -0.363492        -9.8911 
  13   1.0000      -0.305853        -8.3227 
  14   0.0000       0.562528        15.3072 
  15   0.0000       0.615535        16.7496 
  16   0.0000       0.651007        17.7148 
  17   0.0000       0.688931        18.7468 
  18   0.0000       0.725915        19.7531 
  19   0.0000       0.745111        20.2755 
  20   0.0000       0.765934        20.8421 
  21   0.0000       0.816931        22.2298 

                 SPIN DOWN ORBITALS
  NO   OCC          E(Eh)            E(eV) 
   0   1.0000     -20.260205      -551.3082 
   1   1.0000     -11.094558      -301.8983 
   2   1.0000     -11.022706      -299.9431 
   3   1.0000      -1.279808       -34.8254 
   4   1.0000      -0.943000       -25.6603 
   5   1.0000      -0.785895       -21.3853 
   6   1.0000      -0.614341       -16.7171 
   7   1.0000      -0.566422       -15.4131 
   8   1.0000      -0.542810       -14.7706 
   9   1.0000      -0.496207       -13.5025 
  10   1.0000      -0.476638       -12.9700 
  11   1.0000      -0.408913       -11.1271 
  12   1.0000      -0.353835        -9.6283 
  13   0.0000       0.240575         6.5464 
  14   0.0000       0.563994        15.3471 
  15   0.0000       0.621414        16.9095 
  16   0.0000       0.671340        18.2681 
  17   0.0000       0.706935        19.2367 
  18   0.0000       0.730924        19.8894 
  19   0.0000       0.759210        20.6592 
  20   0.0000       0.784980        21.3604 
  21   0.0000       0.909752        24.7556 

                    ********************************
                    * MULLIKEN POPULATION ANALYSIS *
                    ********************************

--------------------------------------------
MULLIKEN ATOMIC CHARGES AND SPIN POPULATIONS
--------------------------------------------
   0 C :   -0.143409    0.731742
   1 C :    0.002416   -0.068728
   2 O :   -0.283718    0.005552
   3 H :    0.038014   -0.252679
   4 H :    0.062345   -0.045234
   5 H :    0.053697   -0.043646
   6 H :    0.066890    0.007809
   7 H :    0.050330    0.024190
   8 H :    0.171009   -0.000478
   9 H :   -0.017575    0.641472
Sum of atomic charges         :   -0.0000000
Sum of atomic spin populations:    1.0000000

-----------------------------------------------------
MULLIKEN REDUCED ORBITAL CHARGES AND SPIN POPULATIONS
-----------------------------------------------------
CHARGE
  0 C s       :     3.209943  s :     3.209943
      pz      :     0.990409  p :     2.933465
      px      :     0.966290
      py      :     0.976766
  1 C s       :     3.168831  s :     3.168831
      pz      :     1.026849  p :     2.828753
      px      :     0.875573
      py      :     0.926331
  2 O s       :     3.836485  s :     3.836485
      pz      :     1.235536  p :     4.447233
      px      :     1.549466
      py      :     1.662230
  3 H s       :     0.961986  s :     0.961986
  4 H s       :     0.937655  s :     0.937655
  5 H s       :     0.946303  s :     0.946303
  6 H s       :     0.933110  s :     0.933110
  7 H s       :     0.949670  s :     0.949670
  8 H s       :     0.828991  s :     0.828991
  9 H s       :     1.017575  s :     1.017575

SPIN
  0 C s       :     0.123212  s :     0.123212
      pz      :     0.156578  p :     0.608529
      px      :     0.055730
      py      :     0.396221
  1 C s       :    -0.016029  s :    -0.016029
      pz      :    -0.011459  p :    -0.052700
      px      :    -0.024145
      py      :    -0.017096
  2 O s       :     0.000171  s :     0.000171
      pz      :     0.000328  p :     0.005381
      px      :     0.001309
      py      :     0.003745
  3 H s       :    -0.252679  s :    -0.252679
  4 H s       :    -0.045234  s :    -0.045234
  5 H s       :    -0.043646  s :    -0.043646
  6 H s       :     0.007809  s :     0.007809
  7 H s       :     0.024190  s :     0.024190
  8 H s       :    -0.000478  s :    -0.000478
  9 H s       :     0.641472  s :     0.641472


                     *******************************
                     * LOEWDIN POPULATION ANALYSIS *
                     *******************************

-------------------------------------------
LOEWDIN ATOMIC CHARGES AND SPIN POPULATIONS
-------------------------------------------
   0 C :   -0.082008    0.669224
   1 C :    0.048549   -0.053365
   2 O :   -0.203391    0.004895
   3 H :    0.046435   -0.178318
   4 H :    0.031566   -0.033986
   5 H :    0.024305   -0.032759
   6 H :    0.031148    0.006583
   7 H :    0.016238    0.021164
   8 H :    0.118746   -0.000421
   9 H :   -0.031586    0.596984

----------------------------------------------------
LOEWDIN REDUCED ORBITAL CHARGES AND SPIN POPULATIONS
----------------------------------------------------
CHARGE
  0 C s       :     3.059438  s :     3.059438
      pz      :     1.017528  p :     3.022571
      px      :     1.003684
      py      :     1.001358
  1 C s       :     3.028229  s :     3.028229
      pz      :     1.045846  p :     2.923223
      px      :     0.919838
      py      :     0.957539
  2 O s       :     3.712611  s :     3.712611
      pz      :     1.253846  p :     4.490780
      px      :     1.563679
      py      :     1.673255
  3 H s       :     0.953565  s :     0.953565
  4 H s       :     0.968434  s :     0.968434
  5 H s       :     0.975695  s :     0.975695
  6 H s       :     0.968852  s :     0.968852
  7 H s       :     0.983762  s :     0.983762
  8 H s       :     0.881254  s :     0.881254
  9 H s       :     1.031586  s :     1.031586

SPIN
  0 C s       :     0.096262  s :     0.096262
      pz      :     0.145815  p :     0.572962
      px      :     0.047302
      py      :     0.379845
  1 C s       :    -0.010456  s :    -0.010456
      pz      :    -0.009299  p :    -0.042910
      px      :    -0.019863
      py      :    -0.013748
  2 O s       :    -0.000050  s :    -0.000050
      pz      :     0.000260  p :     0.004945
      px      :     0.001184
      py      :     0.003501
  3 H s       :    -0.178318  s :    -0.178318
  4 H s       :    -0.033986  s :    -0.033986
  5 H s       :    -0.032759  s :    -0.032759
  6 H s       :     0.006583  s :     0.006583
  7 H s       :     0.021164  s :     0.021164
  8 H s       :    -0.000421  s :    -0.000421
  9 H s       :     0.596984  s :     0.596984


                      *****************************
                      * MAYER POPULATION ANALYSIS *
                      *****************************

  NA   - Mulliken gross atomic population
  ZA   - Total nuclear charge
  QA   - Mulliken gross atomic charge
  VA   - Mayer's total valence
  BVA  - Mayer's bonded valence
  FA   - Mayer's free valence

  ATOM       NA         ZA         QA         VA         BVA        FA
  0 C      6.1434     6.0000    -0.1434     3.9518     3.5984     0.3533
  1 C      5.9976     6.0000     0.0024     3.9327     3.9306     0.0020
  2 O      8.2837     8.0000    -0.2837     1.9943     1.9942     0.0001
  3 H      0.9620     1.0000     0.0380     0.9986     0.9347     0.0638
  4 H      0.9377     1.0000     0.0623     0.9961     0.9941     0.0020
  5 H      0.9463     1.0000     0.0537     0.9971     0.9952     0.0019
  6 H      0.9331     1.0000     0.0669     0.9955     0.9955     0.0001
  7 H      0.9497     1.0000     0.0503     0.9975     0.9969     0.0006
  8 H      0.8290     1.0000     0.1710     0.9708     0.9708     0.0000
  9 H      1.0176     1.0000    -0.0176     0.9997     0.5882     0.4115

  Mayer bond orders larger than 0.1
B(  0-C ,  1-C ) :   0.9888 B(  0-C ,  3-H ) :   0.4865 B(  0-C ,  4-H ) :   0.9769 
B(  0-C ,  5-H ) :   0.9776 B(  0-C ,  9-H ) :   0.1339 B(  1-C ,  2-O ) :   0.9885 
B(  1-C ,  6-H ) :   0.9702 B(  1-C ,  7-H ) :   0.9599 B(  2-O ,  8-H ) :   0.9496 
B(  3-H ,  9-H ) :   0.4418 

-------
TIMINGS
-------

Total SCF time: 0 days 0 hours 0 min 0 sec 

Total time                  ....       0.177 sec
Sum of individual times     ....       0.175 sec  ( 99.1%)

Fock matrix formation       ....       0.174 sec  ( 98.5%)
Diagonalization             ....       0.000 sec  (  0.2%)
Density matrix formation    ....       0.000 sec  (  0.0%)
Population analysis         ....       0.001 sec  (  0.3%)
Initial guess               ....       0.000 sec  (  0.1%)
Orbital Transformation      ....       0.000 sec  (  0.0%)
Orbital Orthonormalization  ....       0.000 sec  (  0.0%)
DIIS solution               ....       0.000 sec  (  0.0%)

-------------------------   --------------------
FINAL SINGLE POINT ENERGY      -152.563912764392
-------------------------   --------------------

                                *** OPTIMIZATION RUN DONE ***

                            ***************************************
                            *     ORCA property calculations      *
                            ***************************************

                                    ---------------------
                                    Active property flags
                                    ---------------------
   (+) Dipole Moment


------------------------------------------------------------------------------
                       ORCA ELECTRIC PROPERTIES CALCULATION
------------------------------------------------------------------------------

Dipole Moment Calculation                       ... on
Quadrupole Moment Calculation                   ... off
Polarizability Calculation                      ... off
GBWName                                         ... TSB_4.gbw
Electron density file                           ... TSB_4.scfp.tmp
The origin for moment calculation is the CENTER OF MASS  = ( 0.021496,  0.025825  0.054185)

-------------
DIPOLE MOMENT
-------------
                                X             Y             Z
Electronic contribution:      4.30986      -1.11359      -0.51279
Nuclear contribution   :     -4.65588       0.77838       0.05633
                        -----------------------------------------
Total Dipole Moment    :     -0.34602      -0.33521      -0.45646
                        -----------------------------------------
Magnitude (a.u.)       :      0.66367
Magnitude (Debye)      :      1.68690


-------------------------------------------------------------------------------
                               ORCA SCF HESSIAN
-------------------------------------------------------------------------------

Hessian of the Hartree-Fock SCF energy:
Hartree-Fock type                                ... UHF
Number of operators                              ...    2
Number of atoms                                  ...   10
Basis set dimensions                             ...   22
Integral neglect threshold                       ... 2.5e-11
Integral primitive cutoff                        ... 2.5e-12

Nuclear repulsion Hessian                        ... done   (      0.0 sec)

----------------------------------------------
Forming right-hand sides of CP-SCF equations     ...
----------------------------------------------
One electron integral derivatives                ... done   (      0.1 sec)
Transforming the overlap derivative matrices     ... done   (      0.0 sec)
Making the Q(x) pseudodensities                  ... done   (      0.0 sec)
Adding the E*S(x)*S(y) terms to the Hessian      ... done   (      0.0 sec)
Calculating energy weighted overlap derivatives  ... done   (      0.0 sec)
Two electron integral derivatives                ... done   (      0.1 sec)
tr(F(y)Q(x)) contribution to the Hessian         ... done   (      0.0 sec)
Response fock operator R(S(x))                   ... done   (      0.1 sec)
tr(F(y)S(x)) contribution to the Hessian         ... done   (      0.0 sec)
Transforming and finalizing RHSs                 ... done   (      0.0 sec)

----------------------------------------------
Solving the CP-SCF equations                     ...
----------------------------------------------
     CP-SCF ITERATION   0: 
     CP-SCF ITERATION   1:      0.000496541237
     CP-SCF ITERATION   2:      0.000063477192
     CP-SCF ITERATION   3:      0.000006317055
     CP-SCF ITERATION   4:      0.000000889735
     CP-SCF ITERATION   5:      0.000000119030
     CP-SCF ITERATION   6:      0.000000017998
     CP-SCF ITERATION   7:      0.000000009517

                                                 ... done   (      0.9 sec)
Forming perturbed density Hessian contributions  ... done   (      0.0 sec)
Making the perturbed densities                   ... done   (      0.0 sec)
2nd integral derivative contribs                 ... done   (      0.4 sec)
Dipol derivatives                                ... done   (      0.1 sec)

Total SCF Hessian time: 0 days 0 hours 0 min 1 sec 

Writing the Hessian file to the disk             ... done


-----------------------
VIBRATIONAL FREQUENCIES
-----------------------

   0:         0.00 cm**-1
   1:         0.00 cm**-1
   2:         0.00 cm**-1
   3:         0.00 cm**-1
   4:         0.00 cm**-1
   5:         0.00 cm**-1
   6:     -2764.96 cm**-1 ***imaginary mode***
   7:       149.58 cm**-1
   8:       343.92 cm**-1
   9:       374.02 cm**-1
  10:       506.55 cm**-1
  11:       721.88 cm**-1
  12:      1005.03 cm**-1
  13:      1072.27 cm**-1
  14:      1248.41 cm**-1
  15:      1266.70 cm**-1
  16:      1336.29 cm**-1
  17:      1469.90 cm**-1
  18:      1566.02 cm**-1
  19:      1592.26 cm**-1
  20:      1660.30 cm**-1
  21:      1735.60 cm**-1
  22:      1764.25 cm**-1
  23:      1792.12 cm**-1
  24:      1814.87 cm**-1
  25:      3543.55 cm**-1
  26:      3613.13 cm**-1
  27:      3674.81 cm**-1
  28:      3756.38 cm**-1
  29:      4224.10 cm**-1


------------
NORMAL MODES
------------

These modes are the cartesian displacements weighted by the diagonal matrix
M(i,i)=1/sqrt(m[i]) where m[i] is the mass of the displaced atom
Thus, these vectors are normalized but *not* orthogonal

                  0          1          2          3          4          5    
      0       0.000000   0.000000   0.000000   0.000000   0.000000   0.000000
      1       0.000000   0.000000   0.000000   0.000000   0.000000   0.000000
      2       0.000000   0.000000   0.000000   0.000000   0.000000   0.000000
      3       0.000000   0.000000   0.000000   0.000000   0.000000   0.000000
      4       0.000000   0.000000   0.000000   0.000000   0.000000   0.000000
      5       0.000000   0.000000   0.000000   0.000000   0.000000   0.000000
      6       0.000000   0.000000   0.000000   0.000000   0.000000   0.000000
      7       0.000000   0.000000   0.000000   0.000000   0.000000   0.000000
      8       0.000000   0.000000   0.000000   0.000000   0.000000   0.000000
      9       0.000000   0.000000   0.000000   0.000000   0.000000   0.000000
     10       0.000000   0.000000   0.000000   0.000000   0.000000   0.000000
     11       0.000000   0.000000   0.000000   0.000000   0.000000   0.000000
     12       0.000000   0.000000   0.000000   0.000000   0.000000   0.000000
     13       0.000000   0.000000   0.000000   0.000000   0.000000   0.000000
     14       0.000000   0.000000   0.000000   0.000000   0.000000   0.000000
     15       0.000000   0.000000   0.000000   0.000000   0.000000   0.000000
     16       0.000000   0.000000   0.000000   0.000000   0.000000   0.000000
     17       0.000000   0.000000   0.000000   0.000000   0.000000   0.000000
     18       0.000000   0.000000   0.000000   0.000000   0.000000   0.000000
     19       0.000000   0.000000   0.000000   0.000000   0.000000   0.000000
     20       0.000000   0.000000   0.000000   0.000000   0.000000   0.000000
     21       0.000000   0.000000   0.000000   0.000000   0.000000   0.000000
     22       0.000000   0.000000   0.000000   0.000000   0.000000   0.000000
     23       0.000000   0.000000   0.000000   0.000000   0.000000   0.000000
     24       0.000000   0.000000   0.000000   0.000000   0.000000   0.000000
     25       0.000000   0.000000   0.000000   0.000000   0.000000   0.000000
     26       0.000000   0.000000   0.000000   0.000000   0.000000   0.000000
     27       0.000000   0.000000   0.000000   0.000000   0.000000   0.000000
     28       0.000000   0.000000   0.000000   0.000000   0.000000   0.000000
     29       0.000000   0.000000   0.000000   0.000000   0.000000   0.000000
                  6          7          8          9         10         11    
      0      -0.012689   0.012008   0.028291  -0.053227  -0.140961  -0.081531
      1       0.055118   0.028819  -0.023224   0.002428  -0.076053  -0.055874
      2       0.029198  -0.033499  -0.046700   0.043738  -0.072461   0.052590
      3       0.000119  -0.013043  -0.007860   0.005919  -0.043873  -0.006287
      4      -0.004501   0.051678  -0.027420   0.020548   0.144246   0.035400
      5      -0.002504   0.071323   0.027627  -0.071718  -0.035768  -0.000469
      6      -0.000413   0.031285  -0.096444   0.029864   0.143369   0.042162
      7       0.000173  -0.037628   0.068229   0.022875  -0.042010  -0.001668
      8       0.000104  -0.061128  -0.008434   0.033575   0.036060  -0.002390
      9       0.165518  -0.238610   0.259335  -0.106808  -0.005945  -0.157097
     10      -0.799270  -0.152185  -0.059993   0.025649  -0.094513  -0.132528
     11      -0.441946   0.198841   0.086994  -0.010138  -0.009929   0.162036
     12       0.034299   0.037204  -0.038142   0.016023   0.018864  -0.007226
     13      -0.042125  -0.126819   0.035624  -0.028394  -0.148581  -0.358326
     14      -0.040159  -0.331374  -0.107444   0.181274   0.236719  -0.445605
     15       0.012805   0.169727   0.099826  -0.204309  -0.393290   0.114108
     16      -0.069212   0.271625   0.064972  -0.060038  -0.264375   0.429602
     17      -0.006022   0.016080  -0.027854   0.035335  -0.106298   0.155325
     18       0.000323  -0.036583  -0.048433   0.016720  -0.155725   0.052805
     19       0.000580   0.217880   0.066903  -0.090428   0.292665  -0.019384
     20      -0.001874   0.098201   0.042061  -0.089395  -0.013517  -0.007529
     21       0.006497  -0.047426   0.074724  -0.004657  -0.025100  -0.013293
     22       0.001162  -0.031704  -0.051270   0.067038   0.060708   0.056563
     23       0.001786   0.225863   0.113823  -0.163843   0.139453  -0.045316
     24      -0.000474   0.079579   0.259770   0.639597   0.053879   0.045878
     25      -0.001222  -0.235641  -0.437380  -0.592645   0.235210   0.013931
     26       0.000248  -0.085884  -0.073434  -0.047595   0.069378  -0.001402
     27      -0.062646  -0.448115   0.680222  -0.266860   0.434182   0.342032
     28       0.304205  -0.305103  -0.098329   0.041965  -0.226892   0.280587
     29       0.168242   0.397791   0.326985  -0.105147   0.401468  -0.400629
                 12         13         14         15         16         17    
      0      -0.034529  -0.188735  -0.015885   0.073000  -0.036799  -0.015411
      1      -0.003399   0.000785   0.062693  -0.104523  -0.033155   0.004732
      2      -0.003220  -0.040229  -0.090761   0.011306  -0.040089   0.067603
      3      -0.026933   0.071189   0.060564  -0.125022   0.146607   0.003836
      4       0.050146  -0.147102  -0.035818   0.064548   0.176108   0.016806
      5       0.093849   0.058832   0.100313   0.024432   0.006659  -0.060610
      6       0.033705   0.101837   0.012934   0.060829  -0.128304   0.002364
      7       0.006422   0.075888   0.010982   0.026566  -0.145966  -0.021750
      8      -0.023237  -0.016055  -0.010945  -0.021186   0.033026  -0.001180
      9      -0.159962   0.092241  -0.134314   0.479282   0.192447  -0.067207
     10       0.108568   0.041761  -0.055927  -0.237083  -0.094468   0.177914
     11      -0.188498  -0.066088   0.094071   0.112884  -0.024126  -0.038090
     12      -0.075360  -0.644768   0.276274  -0.206403  -0.240971  -0.050550
     13      -0.016336   0.509447  -0.200748   0.316182   0.261333  -0.046825
     14      -0.147046  -0.142126   0.158359   0.141982   0.044660  -0.141131
     15       0.354673  -0.018178  -0.538192   0.013937  -0.097462   0.268101
     16      -0.366643   0.152317   0.194874   0.289083   0.247687  -0.216604
     17      -0.101208  -0.018947  -0.049331   0.116878   0.025218   0.007848
     18       0.208990   0.155578  -0.260664  -0.387279   0.514972  -0.516022
     19      -0.462665  -0.048077  -0.340107  -0.197493   0.063032   0.041849
     20       0.013417   0.083900   0.050085  -0.029633  -0.002101  -0.073958
     21      -0.152165   0.286418   0.220756   0.021130   0.473258   0.657414
     22       0.283330  -0.155680   0.097182   0.199989   0.322032   0.090040
     23      -0.419460   0.150470  -0.110390  -0.171556  -0.164265   0.049218
     24      -0.093234   0.027325  -0.355987  -0.124526  -0.062950  -0.162638
     25      -0.135346   0.044468  -0.271991  -0.104031  -0.074893  -0.127031
     26      -0.041679  -0.029465  -0.044970  -0.044573   0.067033  -0.013779
     27       0.114454  -0.114340   0.054453  -0.141743  -0.051293  -0.028695
     28      -0.069864  -0.005257   0.082182  -0.211988  -0.111324   0.169244
     29       0.173384   0.055420  -0.037930  -0.215556  -0.072272   0.145288
                 18         19         20         21         22         23    
      0      -0.064041   0.019019  -0.036734   0.002655  -0.103395   0.020677
      1       0.022739   0.029567  -0.015334   0.013132   0.035829  -0.116619
      2      -0.027326  -0.040039   0.011723   0.006948  -0.030919  -0.067298
      3      -0.014412  -0.028710   0.181601  -0.070523   0.038080  -0.010576
      4      -0.004184  -0.004135   0.042023  -0.020258  -0.004519   0.020637
      5       0.017328   0.003252  -0.039844  -0.082282  -0.005704  -0.007382
      6       0.004637   0.001048  -0.015685   0.050210  -0.006233   0.004668
      7       0.001415  -0.003221   0.002496   0.032372  -0.001545   0.003744
      8      -0.000118  -0.004591   0.029789   0.060099  -0.003752   0.006978
      9       0.725481  -0.278819   0.081902  -0.024442   0.043170  -0.094792
     10       0.126149  -0.395128  -0.077915  -0.027106  -0.087816   0.162441
     11       0.334754   0.679186   0.188957  -0.028936  -0.013057   0.050406
     12       0.165726  -0.080162  -0.203298   0.049467   0.238990  -0.013035
     13      -0.330947   0.220330   0.118252  -0.019102  -0.127195   0.065529
     14      -0.156271   0.121868  -0.138924   0.054891   0.580835   0.283966
     15       0.029011   0.113163   0.069908   0.073700   0.636375   0.147119
     16      -0.222897  -0.336963  -0.176083   0.010935   0.230420   0.255884
     17      -0.095945  -0.127470  -0.032533   0.005779  -0.004539   0.008444
     18       0.150924   0.083291  -0.436167   0.458922  -0.102523   0.088779
     19      -0.012509   0.018550   0.100903   0.280794  -0.097985  -0.058073
     20       0.021784   0.008431  -0.054318  -0.037868  -0.023268  -0.021312
     21       0.031174   0.135495  -0.639764   0.051281   0.003156  -0.117648
     22       0.014322   0.035386  -0.099146  -0.052444  -0.065696  -0.026370
     23      -0.001037  -0.012025  -0.067915   0.031220   0.093236   0.043986
     24       0.010961   0.060013  -0.323057  -0.627035   0.026104  -0.063620
     25       0.009050   0.043751  -0.257134  -0.508581   0.027155  -0.052318
     26       0.000268   0.000714   0.003243  -0.021561   0.001207  -0.001366
     27      -0.252049   0.065860  -0.026756   0.029864   0.031924  -0.141258
     28       0.173278   0.162161   0.033486  -0.113392  -0.227441   0.737179
     29       0.017470  -0.159488  -0.036238  -0.059764  -0.138470   0.414979
                 24         25         26         27         28         29    
      0      -0.010512  -0.001080  -0.047415  -0.003215  -0.045169   0.000027
      1      -0.006848  -0.002177  -0.019255  -0.003352  -0.049973   0.000171
      2      -0.011542  -0.000003  -0.046569   0.001733   0.070869  -0.000201
      3       0.004667  -0.012697   0.002869   0.008308  -0.000109   0.003505
      4      -0.082903   0.071805  -0.003437  -0.022520   0.000018   0.003119
      5       0.047939  -0.008848   0.004518  -0.091737   0.003639   0.002172
      6       0.001992   0.000400   0.000253   0.000268   0.000357  -0.002989
      7      -0.000504   0.000377   0.000101  -0.000082   0.000146  -0.010441
      8      -0.004648   0.000263  -0.000086   0.001848  -0.000193   0.062123
      9      -0.004166   0.003428   0.002229  -0.001897   0.000499   0.000209
     10       0.019929  -0.004841  -0.000405   0.001940   0.000442  -0.000468
     11      -0.016292  -0.000864   0.000609   0.001093  -0.000757  -0.000023
     12       0.044988   0.023999   0.507665   0.041393   0.552216   0.001513
     13      -0.033499   0.022444   0.403739   0.034770   0.445177   0.000614
     14       0.099597  -0.010722  -0.179152  -0.013298  -0.185761  -0.000612
     15       0.063055   0.003614   0.019640   0.005581  -0.020086  -0.001261
     16       0.072648  -0.008195  -0.170525  -0.002414   0.147847   0.000417
     17       0.004956   0.022956   0.714011   0.000701  -0.654751  -0.000597
     18      -0.117533  -0.014064   0.003672  -0.017902  -0.002831  -0.000404
     19       0.658664  -0.072340   0.007792  -0.137347   0.008134   0.000850
     20       0.164652   0.475712  -0.049626   0.863173  -0.040428  -0.013365
     21       0.003743   0.145605  -0.002793  -0.082499   0.002396   0.003004
     22       0.266623  -0.767298   0.013909   0.415933  -0.008981  -0.005393
     23      -0.642503  -0.388584   0.007809   0.208288  -0.005398  -0.005610
     24       0.059078  -0.004512  -0.000278  -0.009500   0.001838   0.002346
     25       0.047334  -0.007408   0.000272  -0.003721  -0.000099   0.130372
     26       0.000603   0.001501   0.001247  -0.016965   0.001919  -0.989312
     27      -0.011137  -0.000257  -0.003351  -0.000118  -0.000176  -0.000043
     28       0.045732   0.001981   0.014005   0.000422   0.000414   0.000128
     29       0.029068   0.001303   0.007543   0.000137   0.000425   0.000020


-----------
IR SPECTRUM
-----------

 Mode    freq (cm**-1)   T**2         TX         TY         TZ
-------------------------------------------------------------------
   7:       149.58    1.169110  (  0.502775  -0.954103   0.077565)
   8:       343.92   25.527209  (  3.079389  -3.989165  -0.362117)
   9:       374.02   54.081003  (  5.169658  -5.047213  -1.371596)
  10:       506.55   10.678515  ( -1.884379   2.666296  -0.136014)
  11:       721.88    0.469200  ( -0.028888   0.474217  -0.493441)
  12:      1005.03    2.412217  ( -1.026664  -1.147520   0.203414)
  13:      1072.27    0.331874  ( -0.271470  -0.387495   0.328673)
  14:      1248.41    9.435934  ( -1.538567  -2.190423   1.506915)
  15:      1266.70    5.077542  ( -2.092513  -0.333554   0.766599)
  16:      1336.29    6.324118  (  1.458529   1.928377  -0.691500)
  17:      1469.90   10.188942  ( -2.580756   1.389677   1.263898)
  18:      1566.02    0.304599  ( -0.025631   0.420131   0.356976)
  19:      1592.26    3.983086  ( -1.408602   0.001097   1.413834)
  20:      1660.30   14.070737  (  3.243835  -1.696790  -0.818031)
  21:      1735.60   26.182998  ( -4.661332  -1.852226   1.012047)
  22:      1764.25    0.091503  (  0.017019   0.148588   0.262935)
  23:      1792.12    0.284081  ( -0.316276   0.362144   0.230005)
  24:      1814.87    0.412207  ( -0.074069  -0.252773   0.585514)
  25:      3543.55    9.818065  ( -0.390832   3.101629  -0.212631)
  26:      3613.13    1.364753  ( -0.794063   0.721947  -0.461530)
  27:      3674.81    2.305646  (  0.113480  -0.893000  -1.222833)
  28:      3756.38    1.152181  ( -0.241501  -0.384337   0.972699)
  29:      4224.10   24.933836  (  0.895595  -0.201188   4.908286)

The first frequency considered to be a vibration is 7
The total number of vibrations considered is 23


--------------------------
THERMOCHEMISTRY AT 298.15K
--------------------------

Temperature         ... 298.15 K
Pressure            ... 1.00 atm
Total Mass          ... 47.08 AMU

Throughout the following assumptions are being made:
  (1) The electronic state is orbitally nondegenerate
      but the spin degeneracy is treated
  (2) There are no thermally accessible electronically excited states
  (3) Hindered rotations indicated by low frequency modes are not
      treated as such but are treated as vibrations and this may
      cause some error
  (4) All equations used are the standard statistical mechanics
      equations for an ideal gas
  (5) All vibrations are strictly harmonic

freq.     149.58  E(vib)   ...       0.40 
freq.     343.92  E(vib)   ...       0.23 
freq.     374.02  E(vib)   ...       0.21 
freq.     506.55  E(vib)   ...       0.14 
freq.     721.88  E(vib)   ...       0.07 
freq.    1005.03  E(vib)   ...       0.02 
freq.    1072.27  E(vib)   ...       0.02 
freq.    1248.41  E(vib)   ...       0.01 
freq.    1266.70  E(vib)   ...       0.01 
freq.    1336.29  E(vib)   ...       0.01 
freq.    1469.90  E(vib)   ...       0.00 
freq.    1566.02  E(vib)   ...       0.00 
freq.    1592.26  E(vib)   ...       0.00 
freq.    1660.30  E(vib)   ...       0.00 
freq.    1735.60  E(vib)   ...       0.00 
freq.    1764.25  E(vib)   ...       0.00 
freq.    1792.12  E(vib)   ...       0.00 
freq.    1814.87  E(vib)   ...       0.00 
freq.    3543.55  E(vib)   ...       0.00 
freq.    3613.13  E(vib)   ...       0.00 
freq.    3674.81  E(vib)   ...       0.00 
freq.    3756.38  E(vib)   ...       0.00 
freq.    4224.10  E(vib)   ...       0.00 

------------
INNER ENERGY
------------

The inner energy is: U= E(el) + E(ZPE) + E(vib) + E(rot) + E(trans)
    E(el)   - is the total energy from the electronic structure calculation
              = E(kin-el) + E(nuc-el) + E(el-el) + E(nuc-nuc)
    E(ZPE)  - the the zero temperature vibrational energy from the frequency calculation
    E(vib)  - the the finite temperature correction to E(ZPE) due to population
              of excited vibrational states
    E(rot)  - is the rotational thermal energy
    E(trans)- is the translational thermal energy

Summary of contributions to the inner energy U:
Electronic energy                ...   -152.56391276 Eh
Zero point energy                ...      0.09165517 Eh      57.51 kcal/mol
Thermal vibrational correction   ...      0.00179271 Eh       1.12 kcal/mol
Thermal rotational correction    ...      0.00141627 Eh       0.89 kcal/mol
Thermal translational correction ...      0.00141627 Eh       0.89 kcal/mol
-----------------------------------------------------------------------
Total thermal energy                   -152.46763233 Eh


Summary of corrections to the electronic energy:
(perhaps to be used in another calculation)
Total thermal correction                  0.00462526 Eh       2.90 kcal/mol
Non-thermal (ZPE) correction              0.09165517 Eh      57.51 kcal/mol
-----------------------------------------------------------------------
Total correction                          0.09628043 Eh      60.42 kcal/mol


--------
ENTHALPY
--------

The enthalpy is H = U + kB*T
                kB is Boltzmann's constant
Total free energy                 ...   -152.46763233 Eh 
Thermal Enthalpy correction       ...      0.00094421 Eh       0.59 kcal/mol
-----------------------------------------------------------------------
Total Enthalpy                    ...   -152.46668813 Eh


Vibrational entropy computed according to the QRRHO of S. Grimme
Chem.Eur.J. 2012 18 9955


-------
ENTROPY
-------

The entropy contributions are T*S = T*(S(el)+S(vib)+S(rot)+S(trans)
     S(el)   - electronic entropy
     S(vib)  - vibrational entropy
     S(rot)  - rotational entropy
     S(trans)- translational entropy
The entropies will be listed as mutliplied by the temperature to get
units of energy

Electronic entropy                ...      0.00065446 Eh      0.41 kcal/mol
Vibrational entropy               ...      0.00291188 Eh      1.83 kcal/mol
Rotational entropy                ...      0.00983704 Eh      6.17 kcal/mol
Translational entropy             ...      0.01780424 Eh     11.17 kcal/mol
-----------------------------------------------------------------------
Final entropy term                ...      0.03120762 Eh     19.58 kcal/mol


CAUTION: The rotational entropy is not quite correctly treated here
         because it includes a symmetry number that is not yet correctly
         implemented in ORCA!
For a nonlinear molecule the correct rotational entropy is:
    S(rot) = R*(ln(qrot/sn)+1.5)
    R    = 8.31441 J/mol/K = 1.987191683e-3 kcal/mol/K
    qrot = 22408.7876619
    sn is the rotational symmetry number. We have assumed 3 here
       if it is different for your molecule then you should correct
       the printed rotational entropy by manually evaluating the equation
       as given above

For convenience we print out the resulting values for sn=1 - 12:
 sn= 1  qrot/sn=   22408.7877 T*S(rot)=     6.82 kcal/mol T*S(tot)=    20.23 kcal/mol
 sn= 2  qrot/sn=   11204.3938 T*S(rot)=     6.41 kcal/mol T*S(tot)=    19.82 kcal/mol
 sn= 3  qrot/sn=    7469.5959 T*S(rot)=     6.17 kcal/mol T*S(tot)=    19.58 kcal/mol
 sn= 4  qrot/sn=    5602.1969 T*S(rot)=     6.00 kcal/mol T*S(tot)=    19.41 kcal/mol
 sn= 5  qrot/sn=    4481.7575 T*S(rot)=     5.87 kcal/mol T*S(tot)=    19.28 kcal/mol
 sn= 6  qrot/sn=    3734.7979 T*S(rot)=     5.76 kcal/mol T*S(tot)=    19.17 kcal/mol
 sn= 7  qrot/sn=    3201.2554 T*S(rot)=     5.67 kcal/mol T*S(tot)=    19.08 kcal/mol
 sn= 8  qrot/sn=    2801.0985 T*S(rot)=     5.59 kcal/mol T*S(tot)=    19.00 kcal/mol
 sn= 9  qrot/sn=    2489.8653 T*S(rot)=     5.52 kcal/mol T*S(tot)=    18.93 kcal/mol
 sn=10  qrot/sn=    2240.8788 T*S(rot)=     5.46 kcal/mol T*S(tot)=    18.87 kcal/mol
 sn=11  qrot/sn=    2037.1625 T*S(rot)=     5.40 kcal/mol T*S(tot)=    18.81 kcal/mol
 sn=12  qrot/sn=    1867.3990 T*S(rot)=     5.35 kcal/mol T*S(tot)=    18.76 kcal/mol


-------------------
GIBBS FREE ENTHALPY
-------------------

The Gibbs free enthalpy is G = H - T*S

Total enthalpy                    ...   -152.46668813 Eh 
Total entropy correction          ...     -0.03120762 Eh    -19.58 kcal/mol
-----------------------------------------------------------------------
Final Gibbs free enthalpy         ...   -152.49789575 Eh

For completeness - the Gibbs free enthalpy minus the electronic energy
G-E(el)                           ...      0.06601702 Eh     41.43 kcal/mol


Timings for individual modules:

Sum of individual times         ...        3.952 sec (=   0.066 min)
GTO integral calculation        ...        0.296 sec (=   0.005 min)   7.5 %
SCF iterations                  ...        1.780 sec (=   0.030 min)  45.1 %
SCF Gradient evaluation         ...        0.133 sec (=   0.002 min)   3.4 %
Geometry relaxation             ...        0.024 sec (=   0.000 min)   0.6 %
Analytical frequency calculation...        1.719 sec (=   0.029 min)  43.5 %
                             ****ORCA TERMINATED NORMALLY****
TOTAL RUN TIME: 0 days 0 hours 0 minutes 4 seconds 73 msec
