
                                 *****************
                                 * O   R   C   A *
                                 *****************

           --- An Ab Initio, DFT and Semiempirical electronic structure package ---

                  #######################################################
                  #                        -***-                        #
                  #  Department of molecular theory and spectroscopy    #
                  #              Directorship: Frank Neese              #
                  # Max Planck Institute for Chemical Energy Conversion #
                  #                  D-45470 Muelheim/Ruhr              #
                  #                       Germany                       #
                  #                                                     #
                  #                  All rights reserved                #
                  #                        -***-                        #
                  #######################################################


                         Program Version 4.0.1.2 - RELEASE -


 With contributions from (in alphabetic order):
   Daniel Aravena         : Magnetic Properties
   Michael Atanasov       : Ab Initio Ligand Field Theory
   Ute Becker             : Parallelization
   Martin Brehm           : Molecular dynamics
   Dmytro Bykov           : SCF Hessian
   Vijay G. Chilkuri      : MRCI spin determinant printing
   Dipayan Datta          : RHF DLPNO-CCSD density
   Achintya Kumar Dutta   : EOM-CC, STEOM-CC
   Dmitry Ganyushin       : Spin-Orbit,Spin-Spin,Magnetic field MRCI
   Yang Guo               : DLPNO-NEVPT2, CIM, IAO-localization
   Andreas Hansen         : Spin unrestricted coupled pair/coupled cluster methods
   Lee Huntington         : MR-EOM, pCC
   Robert Izsak           : Overlap fitted RIJCOSX, COSX-SCS-MP3, EOM
   Christian Kollmar      : KDIIS, OOCD, Brueckner-CCSD(T), CCSD density
   Simone Kossmann        : Meta GGA functionals, TD-DFT gradient, OOMP2, MP2 Hessian
   Martin Krupicka        : AUTO-CI
   Dagmar Lenk            : GEPOL surface
   Dimitrios Liakos       : Extrapolation schemes; parallel MDCI
   Dimitrios Manganas     : ROCIS; embedding schemes
   Dimitrios Pantazis     : SARC Basis sets
   Taras Petrenko         : DFT Hessian,TD-DFT gradient, ASA, ECA, R-Raman, ABS, FL, XAS/XES, NRVS
   Peter Pinski           : DLPNO-MP2
   Christoph Reimann      : Effective Core Potentials
   Marius Retegan         : Local ZFS, SOC
   Christoph Riplinger    : Optimizer, TS searches, QM/MM, DLPNO-CCSD(T), (RO)-DLPNO pert. Triples
   Tobias Risthaus        : Range-separated hybrids, TD-DFT gradient, RPA, STAB
   Michael Roemelt        : Restricted open shell CIS
   Masaaki Saitow         : Open-shell DLPNO
   Barbara Sandhoefer     : DKH picture change effects
   Kantharuban Sivalingam : CASSCF convergence, NEVPT2, FIC-MRCI
   Georgi Stoychev        : AutoAux
   Boris Wezisla          : Elementary symmetry handling
   Frank Wennmohs         : Technical directorship


 We gratefully acknowledge several colleagues who have allowed us to
 interface, adapt or use parts of their codes:
   Stefan Grimme, W. Hujo, H. Kruse,             : VdW corrections, initial TS optimization,
                  C. Bannwarth                     DFT functionals, gCP, sTDA/sTD-DF
   Ed Valeev                                     : LibInt (2-el integral package), F12 methods
   Garnet Chan, S. Sharma, J. Yang, R. Olivares  : DMRG
   Ulf Ekstrom                                   : XCFun DFT Library
   Mihaly Kallay                                 : mrcc  (arbitrary order and MRCC methods)
   Andreas Klamt, Michael Diedenhofen            : otool_cosmo (COSMO solvation model)
   Jiri Pittner, Ondrej Demel                    : Mk-CCSD
   Frank Weinhold                                : gennbo (NPA and NBO analysis)
   Christopher J. Cramer and Donald G. Truhlar   : smd solvation model


 Your calculation uses the libint2 library for the computation of 2-el integrals
 For citations please refer to: http://libint.valeyev.net

 This ORCA versions uses:
   CBLAS   interface :  Fast vector & matrix operations
   LAPACKE interface :  Fast linear algebra routines
   SCALAPACK package :  Parallel linear algebra routines


Your calculation utilizes the basis: STO-3G
   H-Ne       : W. J. Hehre, R. F. Stewart and J. A. Pople, J. Chem. Phys. 2657 (1969).
   Na-Ar      : W. J. Hehre, R. Ditchfield, R. F. Stewart and J. A. Pople, J. Chem. Phys. 2769 (1970).
   K,Ca,Ga-Kr : W. J. Pietro, B. A. Levy, W. J. Hehre and R. F. Stewart, J. Am. Chem. Soc. 19, 2225 (1980).
   Sc-Zn,Y-Cd : W. J. Pietro and W. J. Hehre, J. Comp. Chem. 4, 241 (1983).

================================================================================
                                        WARNINGS
                       Please study these warnings very carefully!
================================================================================

Warning: TCutStore was < 0. Adjusted to Thresh (uncritical)

WARNING: Geometry Optimization
  ===> : Switching off AutoStart
         For restart on a previous wavefunction, please use MOREAD

INFO   : the flag for use of LIBINT has been found!

================================================================================
                                       INPUT FILE
================================================================================
NAME = et2.inp
|  1> %pal nprocs 1 end
|  2> ! hf sto-3g TightSCF
|  3> ! Opt Freq
|  4> * xyz 0 1
|  5>  6   0.030781    0.559317    0.055016
|  6>  6  -1.283177   -0.254174   -0.011134
|  7>  1  -2.137588    0.410709    0.068913
|  8>  1  -1.348821   -0.792831   -0.951395
|  9>  1  -1.331819   -0.973351    0.801774
| 10>  1   0.043548    1.293124   -0.755798
| 11>  1   0.064941    1.115409    1.000423
| 12>  8   1.203785   -0.249139   -0.112186
| 13>  1   1.165772   -0.885697    0.646659
| 14> *
| 15> 
| 16> 
| 17>                          ****END OF INPUT****
================================================================================

                       *****************************
                       * Geometry Optimization Run *
                       *****************************

Geometry optimization settings:
Update method            Update   .... BFGS
Choice of coordinates    CoordSys .... Redundant Internals
Initial Hessian          InHess   .... Almoef's Model

Convergence Tolerances:
Energy Change            TolE     ....  5.0000e-06 Eh
Max. Gradient            TolMAXG  ....  3.0000e-04 Eh/bohr
RMS Gradient             TolRMSG  ....  1.0000e-04 Eh/bohr
Max. Displacement        TolMAXD  ....  4.0000e-03 bohr
RMS Displacement         TolRMSD  ....  2.0000e-03 bohr

------------------------------------------------------------------------------
                        ORCA OPTIMIZATION COORDINATE SETUP
------------------------------------------------------------------------------

The optimization will be done in new redundant internal coordinates
Making redundant internal coordinates   ...  (new redundants) done
Evaluating the initial hessian          ...  (Almloef) done
Evaluating the coordinates              ...  done
Calculating the B-matrix                .... done
Calculating the G-matrix                .... done
Diagonalizing the G-matrix              .... done
The first mode is                       ....   12
The number of degrees of freedom        ....   21

    -----------------------------------------------------------------
                    Redundant Internal Coordinates


    -----------------------------------------------------------------
         Definition                    Initial Value    Approx d2E/dq
    -----------------------------------------------------------------
      1. B(C   1,C   0)                  1.5468         0.351200   
      2. B(H   2,C   1)                  1.0856         0.365988   
      3. B(H   3,C   1)                  1.0856         0.365953   
      4. B(H   4,C   1)                  1.0865         0.364810   
      5. B(H   5,C   0)                  1.0936         0.355313   
      6. B(H   6,C   0)                  1.0974         0.350494   
      7. B(O   7,C   0)                  1.4344         0.475381   
      8. B(H   8,O   7)                  0.9912         0.463632   
      9. A(C   1,C   0,O   7)          113.1576         0.372359   
     10. A(C   1,C   0,H   6)          109.2564         0.319636   
     11. A(H   6,C   0,O   7)          111.1362         0.333963   
     12. A(H   5,C   0,O   7)          106.3920         0.334721   
     13. A(H   5,C   0,H   6)          107.3582         0.289001   
     14. A(C   1,C   0,H   5)          109.3347         0.320350   
     15. A(H   2,C   1,H   3)          108.6729         0.292322   
     16. A(C   0,C   1,H   2)          110.0788         0.321906   
     17. A(H   2,C   1,H   4)          108.3614         0.292178   
     18. A(C   0,C   1,H   4)          110.7419         0.321736   
     19. A(C   0,C   1,H   3)          110.4477         0.321900   
     20. A(H   3,C   1,H   4)          108.4749         0.292174   
     21. A(C   0,O   7,H   8)          103.9667         0.346934   
     22. D(H   3,C   1,C   0,O   7)    -57.0515         0.009932   
     23. D(H   2,C   1,C   0,H   6)     58.5506         0.009932   
     24. D(H   3,C   1,C   0,H   5)     61.3315         0.009932   
     25. D(H   2,C   1,C   0,H   5)    -58.6746         0.009932   
     26. D(H   2,C   1,C   0,O   7)   -177.0576         0.009932   
     27. D(H   4,C   1,C   0,H   5)   -178.4807         0.009932   
     28. D(H   4,C   1,C   0,H   6)    -61.2555         0.009932   
     29. D(H   4,C   1,C   0,O   7)     63.1363         0.009932   
     30. D(H   3,C   1,C   0,H   6)    178.5567         0.009932   
     31. D(H   8,O   7,C   0,H   6)     62.3565         0.017820   
     32. D(H   8,O   7,C   0,H   5)    178.9167         0.017820   
     33. D(H   8,O   7,C   0,C   1)    -61.0053         0.017820   
    -----------------------------------------------------------------

Number of atoms                         .... 9
Number of degrees of freedom            .... 33

         *************************************************************
         *                GEOMETRY OPTIMIZATION CYCLE   1            *
         *************************************************************
---------------------------------
CARTESIAN COORDINATES (ANGSTROEM)
---------------------------------
  C      0.030781    0.559317    0.055016
  C     -1.283177   -0.254174   -0.011134
  H     -2.137588    0.410709    0.068913
  H     -1.348821   -0.792831   -0.951395
  H     -1.331819   -0.973351    0.801774
  H      0.043548    1.293124   -0.755798
  H      0.064941    1.115409    1.000423
  O      1.203785   -0.249139   -0.112186
  H      1.165772   -0.885697    0.646659

----------------------------
CARTESIAN COORDINATES (A.U.)
----------------------------
  NO LB      ZA    FRAG     MASS         X           Y           Z
   0 C     6.0000    0    12.011    0.058168    1.056956    0.103965
   1 C     6.0000    0    12.011   -2.424853   -0.480319   -0.021040
   2 H     1.0000    0     1.008   -4.039456    0.776128    0.130227
   3 H     1.0000    0     1.008   -2.548902   -1.498233   -1.797876
   4 H     1.0000    0     1.008   -2.516773   -1.839367    1.515133
   5 H     1.0000    0     1.008    0.082294    2.443650   -1.428251
   6 H     1.0000    0     1.008    0.122721    2.107818    1.890525
   7 O     8.0000    0    15.999    2.274824   -0.470804   -0.212001
   8 H     1.0000    0     1.008    2.202990   -1.673725    1.222008

--------------------------------
INTERNAL COORDINATES (ANGSTROEM)
--------------------------------
 C      0   0   0     0.000000000000     0.00000000     0.00000000
 C      1   0   0     1.546812546932     0.00000000     0.00000000
 H      2   1   0     1.085585133842   110.07880047     0.00000000
 H      2   1   3     1.085611001467   110.44767255   120.00605722
 H      2   1   3     1.086462616916   110.74192377   240.19384551
 H      1   2   3     1.093643018601   109.33471016   301.32541039
 H      1   2   3     1.097360293483   109.25639635    58.55061228
 O      1   2   3     1.434397433334   113.15757333   182.94242237
 H      8   1   2     0.991209770714   103.96667302   298.99473205

---------------------------
INTERNAL COORDINATES (A.U.)
---------------------------
 C      0   0   0     0.000000000000     0.00000000     0.00000000
 C      1   0   0     2.923052094214     0.00000000     0.00000000
 H      2   1   0     2.051458598018   110.07880047     0.00000000
 H      2   1   3     2.051507480744   110.44767255   120.00605722
 H      2   1   3     2.053116800716   110.74192377   240.19384551
 H      1   2   3     2.066685793430   109.33471016   301.32541039
 H      1   2   3     2.073710424922   109.25639635    58.55061228
 O      1   2   3     2.710618316201   113.15757333   182.94242237
 H      8   1   2     1.873115007915   103.96667302   298.99473205

---------------------
BASIS SET INFORMATION
---------------------
There are 3 groups of distinct atoms

 Group   1 Type C   : 6s3p contracted to 2s1p pattern {33/3}
 Group   2 Type H   : 3s contracted to 1s pattern {3}
 Group   3 Type O   : 6s3p contracted to 2s1p pattern {33/3}

Atom   0C    basis set group =>   1
Atom   1C    basis set group =>   1
Atom   2H    basis set group =>   2
Atom   3H    basis set group =>   2
Atom   4H    basis set group =>   2
Atom   5H    basis set group =>   2
Atom   6H    basis set group =>   2
Atom   7O    basis set group =>   3
Atom   8H    basis set group =>   2
------------------------------------------------------------------------------
                           ORCA GTO INTEGRAL CALCULATION
------------------------------------------------------------------------------

                         BASIS SET STATISTICS AND STARTUP INFO

 # of primitive gaussian shells          ...   45
 # of primitive gaussian functions       ...   63
 # of contracted shells                  ...   15
 # of contracted basis functions         ...   21
 Highest angular momentum                ...    1
 Maximum contraction depth               ...    3
 Integral package used                   ... LIBINT
 Integral threshhold            Thresh   ...  2.500e-11
 Primitive cut-off              TCut     ...  2.500e-12


------------------------------ INTEGRAL EVALUATION ----------------------------


 * One electron integrals 
 Pre-screening matrix                    ... done
 Shell pair data                         ... done (   0.000 sec)

-------------------------------------------------------------------------------
                                 ORCA SCF
-------------------------------------------------------------------------------

------------
SCF SETTINGS
------------
Hamiltonian:
 Ab initio Hamiltonian  Method          .... Hartree-Fock(GTOs)


General Settings:
 Integral files         IntName         .... et2
 Hartree-Fock type      HFTyp           .... RHF
 Total Charge           Charge          ....    0
 Multiplicity           Mult            ....    1
 Number of Electrons    NEL             ....   26
 Basis Dimension        Dim             ....   21
 Nuclear Repulsion      ENuc            ....     80.9706070460 Eh

Convergence Acceleration:
 DIIS                   CNVDIIS         .... on
   Start iteration      DIISMaxIt       ....    12
   Startup error        DIISStart       ....  0.200000
   # of expansion vecs  DIISMaxEq       ....     5
   Bias factor          DIISBfac        ....   1.050
   Max. coefficient     DIISMaxC        ....  10.000
 Newton-Raphson         CNVNR           .... off
 SOSCF                  CNVSOSCF        .... on
   Start iteration      SOSCFMaxIt      ....   150
   Startup grad/error   SOSCFStart      ....  0.003300
 Level Shifting         CNVShift        .... on
   Level shift para.    LevelShift      ....    0.2500
   Turn off err/grad.   ShiftErr        ....    0.0010
 Zerner damping         CNVZerner       .... off
 Static damping         CNVDamp         .... on
   Fraction old density DampFac         ....    0.7000
   Max. Damping (<1)    DampMax         ....    0.9800
   Min. Damping (>=0)   DampMin         ....    0.0000
   Turn off err/grad.   DampErr         ....    0.1000
 Fernandez-Rico         CNVRico         .... off

SCF Procedure:
 Maximum # iterations   MaxIter         ....   125
 SCF integral mode      SCFMode         .... Direct
   Integral package                     .... LIBINT
 Reset frequeny         DirectResetFreq ....    20
 Integral Threshold     Thresh          ....  2.500e-11 Eh
 Primitive CutOff       TCut            ....  2.500e-12 Eh

Convergence Tolerance:
 Convergence Check Mode ConvCheckMode   .... Total+1el-Energy
 Convergence forced     ConvForced      .... 0
 Energy Change          TolE            ....  1.000e-08 Eh
 1-El. energy change                    ....  1.000e-05 Eh
 Orbital Gradient       TolG            ....  1.000e-05
 Orbital Rotation angle TolX            ....  1.000e-05
 DIIS Error             TolErr          ....  5.000e-07


Diagonalization of the overlap matrix:
Smallest eigenvalue                        ... 2.128e-01
Time for diagonalization                   ...    0.000 sec
Threshold for overlap eigenvalues          ... 1.000e-08
Number of eigenvalues below threshold      ... 0
Time for construction of square roots      ...    0.000 sec
Total time needed                          ...    0.000 sec

-------------------
DFT GRID GENERATION
-------------------

General Integration Accuracy     IntAcc      ...  4.340
Radial Grid Type                 RadialGrid  ... Gauss-Chebyshev
Angular Grid (max. acc.)         AngularGrid ... Lebedev-110
Angular grid pruning method      GridPruning ... 3 (G Style)
Weight generation scheme         WeightScheme... Becke
Basis function cutoff            BFCut       ...    1.0000e-11
Integration weight cutoff        WCut        ...    1.0000e-14
Grids for H and He will be reduced by one unit

# of grid points (after initial pruning)     ...   9792 (   0.0 sec)
# of grid points (after weights+screening)   ...   9323 (   0.0 sec)
nearest neighbour list constructed           ...    0.0 sec
Grid point re-assignment to atoms done       ...    0.0 sec
Grid point division into batches done        ...    0.0 sec
Reduced shell lists constructed in    0.0 sec

Total number of grid points                  ...     9323
Total number of batches                      ...      150
Average number of points per batch           ...       62
Average number of grid points per atom       ...     1036
Average number of shells per batch           ...    12.82 (85.47%)
Average number of basis functions per batch  ...    18.61 (88.62%)
Average number of large shells per batch     ...    11.91 (92.92%)
Average number of large basis fcns per batch ...    17.42 (93.63%)
Maximum spatial batch extension              ...  21.97, 21.02, 20.21 au
Average spatial batch extension              ...   4.34,  4.32,  4.07 au

Time for grid setup =    0.054 sec

------------------------------
INITIAL GUESS: MODEL POTENTIAL
------------------------------
Loading Hartree-Fock densities                     ... done
Calculating cut-offs                               ... done
Setting up the integral package                    ... done
Initializing the effective Hamiltonian             ... done
Starting the Coulomb interaction                   ... done (   0.0 sec)
Reading the grid                                   ... done
Mapping shells                                     ... done
Starting the XC term evaluation                    ... done (   0.1 sec)
Transforming the Hamiltonian                       ... done (   0.0 sec)
Diagonalizing the Hamiltonian                      ... done (   0.0 sec)
Back transforming the eigenvectors                 ... done (   0.0 sec)
Now organizing SCF variables                       ... done
                      ------------------
                      INITIAL GUESS DONE (   0.2 sec)
                      ------------------
--------------
SCF ITERATIONS
--------------
ITER       Energy         Delta-E        Max-DP      RMS-DP      [F,P]     Damp
               ***  Starting incremental Fock matrix formation  ***
  0   -152.0525503308   0.000000000000 0.05570554  0.00784461  0.1433829 0.7000
  1   -152.0770695023  -0.024519171537 0.04949374  0.00661889  0.1075416 0.7000
                               ***Turning on DIIS***
  2   -152.0942463645  -0.017176862156 0.12196580  0.01562238  0.0763652 0.0000
  3   -152.1060028085  -0.011756444018 0.01718889  0.00182954  0.0062673 0.0000
                      *** Initiating the SOSCF procedure ***
                           *** Shutting down DIIS ***
                      *** Re-Reading the Fockian *** 
                      *** Removing any level shift *** 
ITER      Energy       Delta-E        Grad      Rot      Max-DP    RMS-DP
  4   -152.13017400  -0.0241711867  0.002407  0.002407  0.003763  0.000536
               *** Restarting incremental Fock matrix formation ***
  5   -152.13306097  -0.0028869732  0.000751  0.000745  0.001185  0.000201
  6   -152.13306565  -0.0000046848  0.000242  0.000345  0.000512  0.000086
  7   -152.13306611  -0.0000004545  0.000014  0.000011  0.000036  0.000006
                 **** Energy Check signals convergence ****
              ***Rediagonalizing the Fockian in SOSCF/NRSCF***

               *****************************************************
               *                     SUCCESS                       *
               *           SCF CONVERGED AFTER   8 CYCLES          *
               *****************************************************


----------------
TOTAL SCF ENERGY
----------------

Total Energy       :         -152.13306611 Eh           -4139.75119 eV

Components:
Nuclear Repulsion  :           80.97060705 Eh            2203.32223 eV
Electronic Energy  :         -233.10367316 Eh           -6343.07342 eV
One Electron Energy:         -368.40775179 Eh          -10024.88458 eV
Two Electron Energy:          135.30407863 Eh            3681.81116 eV

Virial components:
Potential Energy   :         -302.97826880 Eh           -8244.45783 eV
Kinetic Energy     :          150.84520269 Eh            4104.70664 eV
Virial Ratio       :            2.00853765


---------------
SCF CONVERGENCE
---------------

  Last Energy change         ...   -3.1916e-09  Tolerance :   1.0000e-08
  Last MAX-Density change    ...    1.4505e-05  Tolerance :   1.0000e-07
  Last RMS-Density change    ...    2.1630e-06  Tolerance :   5.0000e-09
  Last Orbital Gradient      ...    4.7828e-06  Tolerance :   1.0000e-05
  Last Orbital Rotation      ...    7.1091e-06  Tolerance :   1.0000e-05

             **** THE GBW FILE WAS UPDATED (et2.gbw) ****
             **** DENSITY FILE WAS UPDATED (et2.scfp.tmp) ****
             **** ENERGY FILE WAS UPDATED (et2.en.tmp) ****
----------------
ORBITAL ENERGIES
----------------

  NO   OCC          E(Eh)            E(eV) 
   0   2.0000     -20.256691      -551.2126 
   1   2.0000     -11.089564      -301.7624 
   2   2.0000     -11.042802      -300.4899 
   3   2.0000      -1.277424       -34.7605 
   4   2.0000      -0.966322       -26.2949 
   5   2.0000      -0.802480       -21.8366 
   6   2.0000      -0.621406       -16.9093 
   7   2.0000      -0.566928       -15.4269 
   8   2.0000      -0.543632       -14.7930 
   9   2.0000      -0.500942       -13.6313 
  10   2.0000      -0.474397       -12.9090 
  11   2.0000      -0.405640       -11.0380 
  12   2.0000      -0.351570        -9.5667 
  13   0.0000       0.564649        15.3649 
  14   0.0000       0.617928        16.8147 
  15   0.0000       0.657550        17.8928 
  16   0.0000       0.682385        18.5686 
  17   0.0000       0.719290        19.5729 
  18   0.0000       0.750925        20.4337 
  19   0.0000       0.767991        20.8981 
  20   0.0000       0.781277        21.2596 

                    ********************************
                    * MULLIKEN POPULATION ANALYSIS *
                    ********************************

-----------------------
MULLIKEN ATOMIC CHARGES
-----------------------
   0 C :    0.008743
   1 C :   -0.191023
   2 H :    0.064739
   3 H :    0.066949
   4 H :    0.055518
   5 H :    0.063643
   6 H :    0.047688
   7 O :   -0.286178
   8 H :    0.169921
Sum of atomic charges:   -0.0000000

--------------------------------
MULLIKEN REDUCED ORBITAL CHARGES
--------------------------------
  0 C s       :     3.168412  s :     3.168412
      pz      :     1.022940  p :     2.822845
      px      :     0.857627
      py      :     0.942279
  1 C s       :     3.179610  s :     3.179610
      pz      :     1.022249  p :     3.011413
      px      :     0.983159
      py      :     1.006005
  2 H s       :     0.935261  s :     0.935261
  3 H s       :     0.933051  s :     0.933051
  4 H s       :     0.944482  s :     0.944482
  5 H s       :     0.936357  s :     0.936357
  6 H s       :     0.952312  s :     0.952312
  7 O s       :     3.836164  s :     3.836164
      pz      :     1.539992  p :     4.450014
      px      :     1.477228
      py      :     1.432793
  8 H s       :     0.830079  s :     0.830079


                     *******************************
                     * LOEWDIN POPULATION ANALYSIS *
                     *******************************

----------------------
LOEWDIN ATOMIC CHARGES
----------------------
   0 C :    0.053068
   1 C :   -0.102359
   2 H :    0.034081
   3 H :    0.034874
   4 H :    0.026193
   5 H :    0.028393
   6 H :    0.013646
   7 O :   -0.205730
   8 H :    0.117834

-------------------------------
LOEWDIN REDUCED ORBITAL CHARGES
-------------------------------
  0 C s       :     3.028554  s :     3.028554
      pz      :     1.043286  p :     2.918377
      px      :     0.903053
      py      :     0.972038
  1 C s       :     3.003882  s :     3.003882
      pz      :     1.046423  p :     3.098477
      px      :     1.017724
      py      :     1.034331
  2 H s       :     0.965919  s :     0.965919
  3 H s       :     0.965126  s :     0.965126
  4 H s       :     0.973807  s :     0.973807
  5 H s       :     0.971607  s :     0.971607
  6 H s       :     0.986354  s :     0.986354
  7 O s       :     3.712260  s :     3.712260
      pz      :     1.550716  p :     4.493469
      px      :     1.493765
      py      :     1.448988
  8 H s       :     0.882166  s :     0.882166


                      *****************************
                      * MAYER POPULATION ANALYSIS *
                      *****************************

  NA   - Mulliken gross atomic population
  ZA   - Total nuclear charge
  QA   - Mulliken gross atomic charge
  VA   - Mayer's total valence
  BVA  - Mayer's bonded valence
  FA   - Mayer's free valence

  ATOM       NA         ZA         QA         VA         BVA        FA
  0 C      5.9913     6.0000     0.0087     3.9316     3.9316    -0.0000
  1 C      6.1910     6.0000    -0.1910     3.9655     3.9655    -0.0000
  2 H      0.9353     1.0000     0.0647     0.9958     0.9958     0.0000
  3 H      0.9331     1.0000     0.0669     0.9955     0.9955    -0.0000
  4 H      0.9445     1.0000     0.0555     0.9969     0.9969    -0.0000
  5 H      0.9364     1.0000     0.0636     0.9959     0.9959     0.0000
  6 H      0.9523     1.0000     0.0477     0.9977     0.9977    -0.0000
  7 O      8.2862     8.0000    -0.2862     1.9933     1.9933     0.0000
  8 H      0.8301     1.0000     0.1699     0.9711     0.9711     0.0000

  Mayer bond orders larger than 0.1
B(  0-C ,  1-C ) :   0.9882 B(  0-C ,  5-H ) :   0.9715 B(  0-C ,  6-H ) :   0.9652 
B(  0-C ,  7-O ) :   0.9879 B(  1-C ,  2-H ) :   0.9821 B(  1-C ,  3-H ) :   0.9828 
B(  1-C ,  4-H ) :   0.9832 B(  7-O ,  8-H ) :   0.9500 

-------
TIMINGS
-------

Total SCF time: 0 days 0 hours 0 min 1 sec 

Total time                  ....       1.157 sec
Sum of individual times     ....       1.155 sec  ( 99.8%)

Fock matrix formation       ....       0.953 sec  ( 82.4%)
Diagonalization             ....       0.001 sec  (  0.1%)
Density matrix formation    ....       0.000 sec  (  0.0%)
Population analysis         ....       0.000 sec  (  0.0%)
Initial guess               ....       0.127 sec  ( 10.9%)
Orbital Transformation      ....       0.000 sec  (  0.0%)
Orbital Orthonormalization  ....       0.000 sec  (  0.0%)
DIIS solution               ....       0.000 sec  (  0.0%)
SOSCF solution              ....       0.019 sec  (  1.7%)

-------------------------   --------------------
FINAL SINGLE POINT ENERGY      -152.133066110943
-------------------------   --------------------

------------------------------------------------------------------------------
                         ORCA SCF GRADIENT CALCULATION
------------------------------------------------------------------------------

Gradient of the Hartree-Fock SCF energy:
Hartree-Fock type                ... RHF
Number of operators              ...    1
Number of atoms                  ...    9
Basis set dimensions             ...   21
Integral neglect threshold       ... 2.5e-11
Integral primitive cutoff        ... 2.5e-12

Nuclear repulsion gradient       ... done
One Electron Gradient            ... done
Pre-screening matrix             ... done
Starting the two electron gradient:
Two electron gradient done

------------------
CARTESIAN GRADIENT
------------------

   1   C   :    0.000001195    0.000005177   -0.000001175
   2   C   :   -0.000000986   -0.000002766    0.000003401
   3   H   :    0.000004262   -0.000002096   -0.000000109
   4   H   :   -0.000000825   -0.000001406   -0.000001554
   5   H   :   -0.000003197   -0.000001271    0.000000363
   6   H   :    0.000002252    0.000003496   -0.000002123
   7   H   :    0.000003682   -0.000003082   -0.000000130
   8   O   :   -0.000005486    0.000001556    0.000000006
   9   H   :   -0.000000899    0.000000392    0.000001322

Difference to translation invariance:
           :   -0.0000000000   -0.0000000000    0.0000000000

Norm of the cartesian gradient     ...    0.0000130195
RMS gradient                       ...    0.0000025056
MAX gradient                       ...    0.0000054859

-------
TIMINGS
-------

Total SCF gradient time            ...        0.132 sec

One electron gradient       ....       0.004 sec  (  2.9%)
Prescreening matrices       ....       0.002 sec  (  1.4%)
Two electron gradient       ....       0.054 sec  ( 40.9%)
------------------------------------------------------------------------------
                         ORCA GEOMETRY RELAXATION STEP
------------------------------------------------------------------------------

Reading the OPT-File                    .... done
Getting information on internals        .... done
Copying old internal coords+grads       .... done
Making the new internal coordinates     .... (new redundants).... done
Validating the new internal coordinates .... (new redundants).... done
Calculating the B-matrix                .... done
Calculating the G,G- and P matrices     .... done
Transforming gradient to internals      .... done
Projecting the internal gradient        .... done
Number of atoms                         ....   9
Number of internal coordinates          ....  33
Current Energy                          ....  -152.133066111 Eh
Current gradient norm                   ....     0.000013019 Eh/bohr
Maximum allowed component of the step   ....  0.300
Current trust radius                    ....  0.300
Evaluating the initial hessian          ....  (Almloef) done
Projecting the Hessian                  .... done
Forming the augmented Hessian           .... done
Diagonalizing the augmented Hessian     .... done
Last element of RFO vector              ....  0.999999995
Lowest eigenvalues of augmented Hessian:
 -0.000000001  0.009931994  0.017820408  0.096579234  0.106314457
Length of the computed step             ....  0.000102210
The final length of the internal step   ....  0.000102210
Converting the step to cartesian space:
 Initial RMS(Int)=    0.0000177924
Transforming coordinates:
 Iter   0:  RMS(Cart)=    0.0000189960 RMS(Int)=    0.0000177924
 Iter   1:  RMS(Cart)=    0.0000000002 RMS(Int)=    0.0000000002
done
Storing new coordinates                 .... done

                                .--------------------.
          ----------------------|Geometry convergence|-------------------------
          Item                value                   Tolerance       Converged
          ---------------------------------------------------------------------
          RMS gradient        0.0000027205            0.0001000000      YES
          MAX gradient        0.0000066442            0.0003000000      YES
          RMS step            0.0000177924            0.0020000000      YES
          MAX step            0.0000431351            0.0040000000      YES
          ........................................................
          Max(Bonds)      0.0000      Max(Angles)    0.00
          Max(Dihed)        0.00      Max(Improp)    0.00
          ---------------------------------------------------------------------

                    ***********************HURRAY********************
                    ***        THE OPTIMIZATION HAS CONVERGED     ***
                    *************************************************


    ---------------------------------------------------------------------------
                         Redundant Internal Coordinates

                          --- Optimized Parameters ---  
                            (Angstroem and degrees)

        Definition                    OldVal   dE/dq     Step     FinalVal
    ----------------------------------------------------------------------------
     1. B(C   1,C   0)                1.5468  0.000005 -0.0000    1.5468   
     2. B(H   2,C   1)                1.0856 -0.000005  0.0000    1.0856   
     3. B(H   3,C   1)                1.0856  0.000002 -0.0000    1.0856   
     4. B(H   4,C   1)                1.0865  0.000001 -0.0000    1.0865   
     5. B(H   5,C   0)                1.0936  0.000004 -0.0000    1.0936   
     6. B(H   6,C   0)                1.0974 -0.000002  0.0000    1.0974   
     7. B(O   7,C   0)                1.4344 -0.000007  0.0000    1.4344   
     8. B(H   8,O   7)                0.9912  0.000001 -0.0000    0.9912   
     9. A(C   1,C   0,O   7)          113.16 -0.000006    0.00    113.16   
    10. A(C   1,C   0,H   6)          109.26  0.000003   -0.00    109.26   
    11. A(H   6,C   0,O   7)          111.14 -0.000001    0.00    111.14   
    12. A(H   5,C   0,O   7)          106.39  0.000001   -0.00    106.39   
    13. A(H   5,C   0,H   6)          107.36 -0.000001   -0.00    107.36   
    14. A(C   1,C   0,H   5)          109.33  0.000004   -0.00    109.33   
    15. A(H   2,C   1,H   3)          108.67  0.000000    0.00    108.67   
    16. A(C   0,C   1,H   2)          110.08 -0.000002    0.00    110.08   
    17. A(H   2,C   1,H   4)          108.36 -0.000001    0.00    108.36   
    18. A(C   0,C   1,H   4)          110.74  0.000005   -0.00    110.74   
    19. A(C   0,C   1,H   3)          110.45  0.000000   -0.00    110.45   
    20. A(H   3,C   1,H   4)          108.47 -0.000002    0.00    108.48   
    21. A(C   0,O   7,H   8)          103.97 -0.000003    0.00    103.97   
    22. D(H   3,C   1,C   0,O   7)    -57.05 -0.000002   -0.00    -57.05   
    23. D(H   2,C   1,C   0,H   6)     58.55  0.000003   -0.00     58.55   
    24. D(H   3,C   1,C   0,H   5)     61.33 -0.000001   -0.00     61.33   
    25. D(H   2,C   1,C   0,H   5)    -58.67 -0.000000   -0.00    -58.68   
    26. D(H   2,C   1,C   0,O   7)   -177.06 -0.000001   -0.00   -177.06   
    27. D(H   4,C   1,C   0,H   5)   -178.48 -0.000000   -0.00   -178.48   
    28. D(H   4,C   1,C   0,H   6)    -61.26  0.000003   -0.00    -61.26   
    29. D(H   4,C   1,C   0,O   7)     63.14 -0.000001   -0.00     63.14   
    30. D(H   3,C   1,C   0,H   6)    178.56  0.000002   -0.00    178.55   
    31. D(H   8,O   7,C   0,H   6)     62.36 -0.000000    0.00     62.36   
    32. D(H   8,O   7,C   0,H   5)    178.92 -0.000002    0.00    178.92   
    33. D(H   8,O   7,C   0,C   1)    -61.01  0.000001    0.00    -61.00   
    ----------------------------------------------------------------------------
                 *******************************************************
                 *** FINAL ENERGY EVALUATION AT THE STATIONARY POINT ***
                 ***               (AFTER    1 CYCLES)               ***
                 *******************************************************
---------------------------------
CARTESIAN COORDINATES (ANGSTROEM)
---------------------------------
  C      0.030780    0.559308    0.055020
  C     -1.283179   -0.254168   -0.011136
  H     -2.137596    0.410718    0.068920
  H     -1.348824   -0.792817   -0.951398
  H     -1.331808   -0.973348    0.801768
  H      0.043539    1.293101   -0.755798
  H      0.064920    1.115421    1.000418
  O      1.203801   -0.249138   -0.112177
  H      1.165789   -0.885710    0.646655

----------------------------
CARTESIAN COORDINATES (A.U.)
----------------------------
  NO LB      ZA    FRAG     MASS         X           Y           Z
   0 C     6.0000    0    12.011    0.058166    1.056939    0.103973
   1 C     6.0000    0    12.011   -2.424857   -0.480307   -0.021044
   2 H     1.0000    0     1.008   -4.039470    0.776145    0.130240
   3 H     1.0000    0     1.008   -2.548907   -1.498208   -1.797881
   4 H     1.0000    0     1.008   -2.516753   -1.839360    1.515122
   5 H     1.0000    0     1.008    0.082278    2.443607   -1.428252
   6 H     1.0000    0     1.008    0.122680    2.107839    1.890517
   7 O     8.0000    0    15.999    2.274854   -0.470803   -0.211984
   8 H     1.0000    0     1.008    2.203022   -1.673750    1.222000

--------------------------------
INTERNAL COORDINATES (ANGSTROEM)
--------------------------------
 C      0   0   0     0.000000000000     0.00000000     0.00000000
 C      1   0   0     1.546805648647     0.00000000     0.00000000
 H      2   1   0     1.085591979166   110.07930454     0.00000000
 H      2   1   3     1.085607797302   110.44756078   120.00649054
 H      2   1   3     1.086460819367   110.74097095   240.19376321
 H      1   2   3     1.093637137105   109.33355597   301.32443492
 H      1   2   3     1.097362581836   109.25596734    58.54822314
 O      1   2   3     1.434404829459   113.15875858   182.94179689
 H      8   1   2     0.991208787592   103.96712770   298.99558471

---------------------------
INTERNAL COORDINATES (A.U.)
---------------------------
 C      0   0   0     0.000000000000     0.00000000     0.00000000
 C      1   0   0     2.923039058346     0.00000000     0.00000000
 H      2   1   0     2.051471533806   110.07930454     0.00000000
 H      2   1   3     2.051501425750   110.44756078   120.00649054
 H      2   1   3     2.053113403838   110.74097095   240.19376321
 H      1   2   3     2.066674679014   109.33355597   301.32443492
 H      1   2   3     2.073714749282   109.25596734    58.54822314
 O      1   2   3     2.710632292852   113.15875858   182.94179689
 H      8   1   2     1.873113150085   103.96712770   298.99558471

---------------------
BASIS SET INFORMATION
---------------------
There are 3 groups of distinct atoms

 Group   1 Type C   : 6s3p contracted to 2s1p pattern {33/3}
 Group   2 Type H   : 3s contracted to 1s pattern {3}
 Group   3 Type O   : 6s3p contracted to 2s1p pattern {33/3}

Atom   0C    basis set group =>   1
Atom   1C    basis set group =>   1
Atom   2H    basis set group =>   2
Atom   3H    basis set group =>   2
Atom   4H    basis set group =>   2
Atom   5H    basis set group =>   2
Atom   6H    basis set group =>   2
Atom   7O    basis set group =>   3
Atom   8H    basis set group =>   2
------------------------------------------------------------------------------
                           ORCA GTO INTEGRAL CALCULATION
------------------------------------------------------------------------------

                         BASIS SET STATISTICS AND STARTUP INFO

 # of primitive gaussian shells          ...   45
 # of primitive gaussian functions       ...   63
 # of contracted shells                  ...   15
 # of contracted basis functions         ...   21
 Highest angular momentum                ...    1
 Maximum contraction depth               ...    3
 Integral package used                   ... LIBINT
 Integral threshhold            Thresh   ...  2.500e-11
 Primitive cut-off              TCut     ...  2.500e-12


------------------------------ INTEGRAL EVALUATION ----------------------------


 * One electron integrals 
 Pre-screening matrix                    ... done
 Shell pair data                         ... done (   0.000 sec)

-------------------------------------------------------------------------------
                                 ORCA SCF
-------------------------------------------------------------------------------

------------
SCF SETTINGS
------------
Hamiltonian:
 Ab initio Hamiltonian  Method          .... Hartree-Fock(GTOs)


General Settings:
 Integral files         IntName         .... et2
 Hartree-Fock type      HFTyp           .... RHF
 Total Charge           Charge          ....    0
 Multiplicity           Mult            ....    1
 Number of Electrons    NEL             ....   26
 Basis Dimension        Dim             ....   21
 Nuclear Repulsion      ENuc            ....     80.9704934933 Eh

Convergence Acceleration:
 DIIS                   CNVDIIS         .... on
   Start iteration      DIISMaxIt       ....    12
   Startup error        DIISStart       ....  0.200000
   # of expansion vecs  DIISMaxEq       ....     5
   Bias factor          DIISBfac        ....   1.050
   Max. coefficient     DIISMaxC        ....  10.000
 Newton-Raphson         CNVNR           .... off
 SOSCF                  CNVSOSCF        .... on
   Start iteration      SOSCFMaxIt      ....   150
   Startup grad/error   SOSCFStart      ....  0.003300
 Level Shifting         CNVShift        .... on
   Level shift para.    LevelShift      ....    0.2500
   Turn off err/grad.   ShiftErr        ....    0.0010
 Zerner damping         CNVZerner       .... off
 Static damping         CNVDamp         .... on
   Fraction old density DampFac         ....    0.7000
   Max. Damping (<1)    DampMax         ....    0.9800
   Min. Damping (>=0)   DampMin         ....    0.0000
   Turn off err/grad.   DampErr         ....    0.1000
 Fernandez-Rico         CNVRico         .... off

SCF Procedure:
 Maximum # iterations   MaxIter         ....   125
 SCF integral mode      SCFMode         .... Direct
   Integral package                     .... LIBINT
 Reset frequeny         DirectResetFreq ....    20
 Integral Threshold     Thresh          ....  2.500e-11 Eh
 Primitive CutOff       TCut            ....  2.500e-12 Eh

Convergence Tolerance:
 Convergence Check Mode ConvCheckMode   .... Total+1el-Energy
 Convergence forced     ConvForced      .... 0
 Energy Change          TolE            ....  1.000e-08 Eh
 1-El. energy change                    ....  1.000e-05 Eh
 Orbital Gradient       TolG            ....  1.000e-05
 Orbital Rotation angle TolX            ....  1.000e-05
 DIIS Error             TolErr          ....  5.000e-07


Diagonalization of the overlap matrix:
Smallest eigenvalue                        ... 2.128e-01
Time for diagonalization                   ...    0.000 sec
Threshold for overlap eigenvalues          ... 1.000e-08
Number of eigenvalues below threshold      ... 0
Time for construction of square roots      ...    0.000 sec
Total time needed                          ...    0.000 sec

---------------------
INITIAL GUESS: MOREAD
---------------------
Guess MOs are being read from file: et2.gbw
Input Geometry matches current geometry (good)
Input basis set matches current basis set (good)
MOs were renormalized
MOs were reorthogonalized (Cholesky)
                      ------------------
                      INITIAL GUESS DONE (   0.0 sec)
                      ------------------
--------------
SCF ITERATIONS
--------------
ITER       Energy         Delta-E        Max-DP      RMS-DP      [F,P]     Damp
               ***  Starting incremental Fock matrix formation  ***
                      *** Initiating the SOSCF procedure ***
                      *** Re-Reading the Fockian *** 
                      *** Removing any level shift *** 
ITER      Energy       Delta-E        Grad      Rot      Max-DP    RMS-DP
  0   -152.13306611 -152.1330661116  0.000002  0.000002  0.000005  0.000001
               *** Restarting incremental Fock matrix formation ***
                 **** Energy Check signals convergence ****
              ***Rediagonalizing the Fockian in SOSCF/NRSCF***

               *****************************************************
               *                     SUCCESS                       *
               *           SCF CONVERGED AFTER   1 CYCLES          *
               *****************************************************


----------------
TOTAL SCF ENERGY
----------------

Total Energy       :         -152.13306611 Eh           -4139.75119 eV

Components:
Nuclear Repulsion  :           80.97049349 Eh            2203.31914 eV
Electronic Energy  :         -233.10355961 Eh           -6343.07033 eV
One Electron Energy:         -368.40751550 Eh          -10024.87815 eV
Two Electron Energy:          135.30395589 Eh            3681.80782 eV

Virial components:
Potential Energy   :         -302.97826286 Eh           -8244.45767 eV
Kinetic Energy     :          150.84519675 Eh            4104.70648 eV
Virial Ratio       :            2.00853769


---------------
SCF CONVERGENCE
---------------

  Last Energy change         ...   -1.3480e-10  Tolerance :   1.0000e-08
  Last MAX-Density change    ...    3.3011e-06  Tolerance :   1.0000e-07
  Last RMS-Density change    ...    4.6795e-07  Tolerance :   5.0000e-09
  Last Orbital Gradient      ...    1.1581e-06  Tolerance :   1.0000e-05
  Last Orbital Rotation      ...    1.0578e-06  Tolerance :   1.0000e-05

             **** THE GBW FILE WAS UPDATED (et2.gbw) ****
             **** DENSITY FILE WAS UPDATED (et2.scfp.tmp) ****
             **** ENERGY FILE WAS UPDATED (et2.en.tmp) ****
----------------
ORBITAL ENERGIES
----------------

  NO   OCC          E(Eh)            E(eV) 
   0   2.0000     -20.256693      -551.2126 
   1   2.0000     -11.089559      -301.7622 
   2   2.0000     -11.042809      -300.4901 
   3   2.0000      -1.277422       -34.7604 
   4   2.0000      -0.966325       -26.2950 
   5   2.0000      -0.802479       -21.8366 
   6   2.0000      -0.621404       -16.9093 
   7   2.0000      -0.566930       -15.4269 
   8   2.0000      -0.543634       -14.7930 
   9   2.0000      -0.500942       -13.6313 
  10   2.0000      -0.474395       -12.9089 
  11   2.0000      -0.405639       -11.0380 
  12   2.0000      -0.351572        -9.5668 
  13   0.0000       0.564645        15.3648 
  14   0.0000       0.617926        16.8146 
  15   0.0000       0.657552        17.8929 
  16   0.0000       0.682388        18.5687 
  17   0.0000       0.719288        19.5728 
  18   0.0000       0.750923        20.4337 
  19   0.0000       0.767991        20.8981 
  20   0.0000       0.781279        21.2597 

                    ********************************
                    * MULLIKEN POPULATION ANALYSIS *
                    ********************************

-----------------------
MULLIKEN ATOMIC CHARGES
-----------------------
   0 C :    0.008738
   1 C :   -0.191016
   2 H :    0.064738
   3 H :    0.066947
   4 H :    0.055516
   5 H :    0.063644
   6 H :    0.047688
   7 O :   -0.286176
   8 H :    0.169922
Sum of atomic charges:   -0.0000000

--------------------------------
MULLIKEN REDUCED ORBITAL CHARGES
--------------------------------
  0 C s       :     3.168412  s :     3.168412
      pz      :     1.022941  p :     2.822850
      px      :     0.857627
      py      :     0.942282
  1 C s       :     3.179607  s :     3.179607
      pz      :     1.022247  p :     3.011409
      px      :     0.983157
      py      :     1.006004
  2 H s       :     0.935262  s :     0.935262
  3 H s       :     0.933053  s :     0.933053
  4 H s       :     0.944484  s :     0.944484
  5 H s       :     0.936356  s :     0.936356
  6 H s       :     0.952312  s :     0.952312
  7 O s       :     3.836165  s :     3.836165
      pz      :     1.540001  p :     4.450011
      px      :     1.477220
      py      :     1.432790
  8 H s       :     0.830078  s :     0.830078


                     *******************************
                     * LOEWDIN POPULATION ANALYSIS *
                     *******************************

----------------------
LOEWDIN ATOMIC CHARGES
----------------------
   0 C :    0.053065
   1 C :   -0.102354
   2 H :    0.034080
   3 H :    0.034873
   4 H :    0.026192
   5 H :    0.028393
   6 H :    0.013646
   7 O :   -0.205728
   8 H :    0.117834

-------------------------------
LOEWDIN REDUCED ORBITAL CHARGES
-------------------------------
  0 C s       :     3.028554  s :     3.028554
      pz      :     1.043288  p :     2.918382
      px      :     0.903053
      py      :     0.972041
  1 C s       :     3.003880  s :     3.003880
      pz      :     1.046422  p :     3.098474
      px      :     1.017722
      py      :     1.034331
  2 H s       :     0.965920  s :     0.965920
  3 H s       :     0.965127  s :     0.965127
  4 H s       :     0.973808  s :     0.973808
  5 H s       :     0.971607  s :     0.971607
  6 H s       :     0.986354  s :     0.986354
  7 O s       :     3.712262  s :     3.712262
      pz      :     1.550725  p :     4.493466
      px      :     1.493756
      py      :     1.448985
  8 H s       :     0.882166  s :     0.882166


                      *****************************
                      * MAYER POPULATION ANALYSIS *
                      *****************************

  NA   - Mulliken gross atomic population
  ZA   - Total nuclear charge
  QA   - Mulliken gross atomic charge
  VA   - Mayer's total valence
  BVA  - Mayer's bonded valence
  FA   - Mayer's free valence

  ATOM       NA         ZA         QA         VA         BVA        FA
  0 C      5.9913     6.0000     0.0087     3.9316     3.9316     0.0000
  1 C      6.1910     6.0000    -0.1910     3.9655     3.9655    -0.0000
  2 H      0.9353     1.0000     0.0647     0.9958     0.9958    -0.0000
  3 H      0.9331     1.0000     0.0669     0.9955     0.9955     0.0000
  4 H      0.9445     1.0000     0.0555     0.9969     0.9969     0.0000
  5 H      0.9364     1.0000     0.0636     0.9959     0.9959     0.0000
  6 H      0.9523     1.0000     0.0477     0.9977     0.9977    -0.0000
  7 O      8.2862     8.0000    -0.2862     1.9933     1.9933     0.0000
  8 H      0.8301     1.0000     0.1699     0.9711     0.9711    -0.0000

  Mayer bond orders larger than 0.1
B(  0-C ,  1-C ) :   0.9882 B(  0-C ,  5-H ) :   0.9715 B(  0-C ,  6-H ) :   0.9652 
B(  0-C ,  7-O ) :   0.9879 B(  1-C ,  2-H ) :   0.9821 B(  1-C ,  3-H ) :   0.9828 
B(  1-C ,  4-H ) :   0.9832 B(  7-O ,  8-H ) :   0.9500 

-------
TIMINGS
-------

Total SCF time: 0 days 0 hours 0 min 0 sec 

Total time                  ....       0.188 sec
Sum of individual times     ....       0.187 sec  ( 99.3%)

Fock matrix formation       ....       0.186 sec  ( 98.6%)
Diagonalization             ....       0.000 sec  (  0.1%)
Density matrix formation    ....       0.000 sec  (  0.0%)
Population analysis         ....       0.000 sec  (  0.2%)
Initial guess               ....       0.000 sec  (  0.1%)
Orbital Transformation      ....       0.000 sec  (  0.0%)
Orbital Orthonormalization  ....       0.000 sec  (  0.0%)
DIIS solution               ....       0.000 sec  (  0.0%)
SOSCF solution              ....       0.001 sec  (  0.4%)

-------------------------   --------------------
FINAL SINGLE POINT ENERGY      -152.133066111779
-------------------------   --------------------

                                *** OPTIMIZATION RUN DONE ***

                            ***************************************
                            *     ORCA property calculations      *
                            ***************************************

                                    ---------------------
                                    Active property flags
                                    ---------------------
   (+) Dipole Moment


------------------------------------------------------------------------------
                       ORCA ELECTRIC PROPERTIES CALCULATION
------------------------------------------------------------------------------

Dipole Moment Calculation                       ... on
Quadrupole Moment Calculation                   ... off
Polarizability Calculation                      ... off
GBWName                                         ... et2.gbw
Electron density file                           ... et2.scfp.tmp
The origin for moment calculation is the CENTER OF MASS  = ( 0.026446, -0.006244 -0.018482)

-------------
DIPOLE MOMENT
-------------
                                X             Y             Z
Electronic contribution:      2.95732      -0.23197      -0.39742
Nuclear contribution   :     -3.38606       0.17198       0.81399
                        -----------------------------------------
Total Dipole Moment    :     -0.42873      -0.05999       0.41657
                        -----------------------------------------
Magnitude (a.u.)       :      0.60078
Magnitude (Debye)      :      1.52707


-------------------------------------------------------------------------------
                               ORCA SCF HESSIAN
-------------------------------------------------------------------------------

Hessian of the Hartree-Fock SCF energy:
Hartree-Fock type                                ... RHF
Number of operators                              ...    1
Number of atoms                                  ...    9
Basis set dimensions                             ...   21
Integral neglect threshold                       ... 2.5e-11
Integral primitive cutoff                        ... 2.5e-12

Nuclear repulsion Hessian                        ... done   (      0.0 sec)

----------------------------------------------
Forming right-hand sides of CP-SCF equations     ...
----------------------------------------------
One electron integral derivatives                ... done   (      0.1 sec)
Transforming the overlap derivative matrices     ... done   (      0.0 sec)
Making the Q(x) pseudodensities                  ... done   (      0.0 sec)
Adding the E*S(x)*S(y) terms to the Hessian      ... done   (      0.0 sec)
Calculating energy weighted overlap derivatives  ... done   (      0.0 sec)
Two electron integral derivatives                ... done   (      0.1 sec)
tr(F(y)Q(x)) contribution to the Hessian         ... done   (      0.0 sec)
Response fock operator R(S(x))                   ... done   (      0.1 sec)
tr(F(y)S(x)) contribution to the Hessian         ... done   (      0.0 sec)
Transforming and finalizing RHSs                 ... done   (      0.0 sec)

----------------------------------------------
Solving the CP-SCF equations                     ...
----------------------------------------------
     CP-SCF ITERATION   0: 
     CP-SCF ITERATION   1:      0.000239343607
     CP-SCF ITERATION   2:      0.000012913923
     CP-SCF ITERATION   3:      0.000000349064
     CP-SCF ITERATION   4:      0.000000013821
     CP-SCF ITERATION   5:      0.000000009843

                                                 ... done   (      0.6 sec)
Forming perturbed density Hessian contributions  ... done   (      0.0 sec)
Making the perturbed densities                   ... done   (      0.0 sec)
2nd integral derivative contribs                 ... done   (      0.4 sec)
Dipol derivatives                                ... done   (      0.1 sec)

Total SCF Hessian time: 0 days 0 hours 0 min 1 sec 

Writing the Hessian file to the disk             ... done


-----------------------
VIBRATIONAL FREQUENCIES
-----------------------

   0:         0.00 cm**-1
   1:         0.00 cm**-1
   2:         0.00 cm**-1
   3:         0.00 cm**-1
   4:         0.00 cm**-1
   5:         0.00 cm**-1
   6:       236.34 cm**-1
   7:       373.25 cm**-1
   8:       455.98 cm**-1
   9:       935.52 cm**-1
  10:      1066.77 cm**-1
  11:      1247.54 cm**-1
  12:      1273.39 cm**-1
  13:      1349.87 cm**-1
  14:      1512.85 cm**-1
  15:      1659.64 cm**-1
  16:      1722.92 cm**-1
  17:      1744.95 cm**-1
  18:      1814.41 cm**-1
  19:      1826.13 cm**-1
  20:      1840.46 cm**-1
  21:      3559.41 cm**-1
  22:      3567.60 cm**-1
  23:      3682.51 cm**-1
  24:      3748.94 cm**-1
  25:      3758.08 cm**-1
  26:      4224.03 cm**-1


------------
NORMAL MODES
------------

These modes are the cartesian displacements weighted by the diagonal matrix
M(i,i)=1/sqrt(m[i]) where m[i] is the mass of the displaced atom
Thus, these vectors are normalized but *not* orthogonal

                  0          1          2          3          4          5    
      0       0.000000   0.000000   0.000000   0.000000   0.000000   0.000000
      1       0.000000   0.000000   0.000000   0.000000   0.000000   0.000000
      2       0.000000   0.000000   0.000000   0.000000   0.000000   0.000000
      3       0.000000   0.000000   0.000000   0.000000   0.000000   0.000000
      4       0.000000   0.000000   0.000000   0.000000   0.000000   0.000000
      5       0.000000   0.000000   0.000000   0.000000   0.000000   0.000000
      6       0.000000   0.000000   0.000000   0.000000   0.000000   0.000000
      7       0.000000   0.000000   0.000000   0.000000   0.000000   0.000000
      8       0.000000   0.000000   0.000000   0.000000   0.000000   0.000000
      9       0.000000   0.000000   0.000000   0.000000   0.000000   0.000000
     10       0.000000   0.000000   0.000000   0.000000   0.000000   0.000000
     11       0.000000   0.000000   0.000000   0.000000   0.000000   0.000000
     12       0.000000   0.000000   0.000000   0.000000   0.000000   0.000000
     13       0.000000   0.000000   0.000000   0.000000   0.000000   0.000000
     14       0.000000   0.000000   0.000000   0.000000   0.000000   0.000000
     15       0.000000   0.000000   0.000000   0.000000   0.000000   0.000000
     16       0.000000   0.000000   0.000000   0.000000   0.000000   0.000000
     17       0.000000   0.000000   0.000000   0.000000   0.000000   0.000000
     18       0.000000   0.000000   0.000000   0.000000   0.000000   0.000000
     19       0.000000   0.000000   0.000000   0.000000   0.000000   0.000000
     20       0.000000   0.000000   0.000000   0.000000   0.000000   0.000000
     21       0.000000   0.000000   0.000000   0.000000   0.000000   0.000000
     22       0.000000   0.000000   0.000000   0.000000   0.000000   0.000000
     23       0.000000   0.000000   0.000000   0.000000   0.000000   0.000000
     24       0.000000   0.000000   0.000000   0.000000   0.000000   0.000000
     25       0.000000   0.000000   0.000000   0.000000   0.000000   0.000000
     26       0.000000   0.000000   0.000000   0.000000   0.000000   0.000000
                  6          7          8          9         10         11    
      0      -0.001489  -0.001489  -0.014652  -0.000510   0.044705   0.069824
      1       0.004505   0.029649  -0.200008   0.014414   0.152690   0.101471
      2      -0.065326  -0.043461  -0.040487  -0.078329   0.014705  -0.052264
      3      -0.002848   0.029151  -0.213511  -0.004462  -0.213782  -0.010651
      4       0.000886  -0.013925   0.043763   0.000432  -0.019932  -0.124027
      5       0.000937   0.022449   0.015602  -0.036550   0.009123   0.038542
      6       0.007872  -0.000947   0.058997  -0.010020  -0.635905   0.261738
      7      -0.053482  -0.061602   0.394639  -0.031391  -0.536984   0.245146
      8       0.571398   0.088560   0.054088   0.173202  -0.064928  -0.083736
      9      -0.305949  -0.014253  -0.518295  -0.331267   0.151481  -0.177792
     10       0.395551  -0.022839   0.053114  -0.276196  -0.092801   0.088704
     11      -0.203006   0.030281   0.031144   0.145485   0.015231  -0.077248
     12       0.285293   0.127419  -0.462024   0.330675   0.078342  -0.536454
     13      -0.345898  -0.012919   0.102259   0.230320  -0.141706  -0.191304
     14      -0.287719   0.030812   0.052501   0.189072  -0.069834  -0.046710
     15       0.010536   0.010630  -0.056609   0.185590   0.176935  -0.284223
     16      -0.071364  -0.018975  -0.192148   0.401150   0.158969   0.296132
     17      -0.133795  -0.087061  -0.034942   0.275770   0.012370   0.110542
     18      -0.016462  -0.025516  -0.084997  -0.165038   0.254949   0.232475
     19       0.093202   0.084881  -0.165853  -0.441930   0.153646  -0.100281
     20      -0.117132  -0.071433  -0.056237   0.195556   0.012347   0.065250
     21       0.002878   0.009021   0.226337   0.008643   0.123690   0.012136
     22      -0.012976   0.027930   0.115518  -0.008993  -0.067959  -0.015597
     23       0.048725   0.048255   0.028646   0.018774  -0.012925   0.003055
     24       0.024711  -0.570131   0.189212  -0.087868   0.025661  -0.393443
     25       0.123704  -0.599219  -0.163751   0.083888  -0.044380   0.177915
     26       0.164131  -0.506691  -0.204697   0.091790   0.016039   0.146922
                 12         13         14         15         16         17    
      0      -0.155648  -0.132846  -0.020849   0.170533   0.008305  -0.104564
      1      -0.048360   0.147479   0.028689  -0.043442  -0.022830  -0.026499
      2      -0.089870   0.097297  -0.071565   0.020049   0.047614   0.053901
      3       0.048771   0.047110   0.006348  -0.001681  -0.102887   0.096767
      4       0.110404  -0.028637  -0.019807   0.063021  -0.047595   0.037895
      5       0.071683  -0.055225   0.101308   0.011118  -0.012347  -0.002355
      6      -0.121326   0.229151   0.035594  -0.246822   0.224821  -0.151720
      7      -0.091890   0.185734   0.044045  -0.243483   0.355832  -0.284339
      8      -0.125057   0.109528  -0.126455  -0.015641   0.122132   0.011680
      9       0.509745  -0.306981   0.225765  -0.057464   0.437173  -0.303311
     10       0.255080  -0.090435   0.226754  -0.113299   0.067332  -0.046735
     11      -0.034508   0.006265  -0.048547   0.116356  -0.113745   0.076638
     12       0.101581   0.002556  -0.261976  -0.089637   0.369749  -0.323230
     13      -0.057537   0.152381  -0.199833  -0.100419   0.095205  -0.000612
     14      -0.084455   0.099145  -0.068532  -0.134526   0.143607  -0.060876
     15      -0.565693  -0.329845   0.586871  -0.380476   0.212824   0.472757
     16       0.181869  -0.007682   0.147683  -0.116948  -0.129319  -0.198372
     17       0.124058  -0.045801   0.034574  -0.040851  -0.032789  -0.078045
     18       0.036570  -0.621683  -0.573191  -0.694761  -0.131125   0.135572
     19      -0.336693   0.383703  -0.089354  -0.011424   0.068860   0.009679
     20       0.055675  -0.020490   0.016555   0.031130  -0.000422   0.020738
     21       0.095680   0.120253  -0.001019  -0.014610   0.031609   0.048934
     22      -0.048328  -0.120770  -0.009640   0.011475   0.007722   0.006837
     23       0.010313  -0.040192  -0.006391  -0.026156  -0.043698  -0.047654
     24      -0.206012   0.139736   0.175914  -0.310944  -0.488120  -0.513851
     25       0.076934  -0.122907  -0.082121   0.170154   0.258692   0.276079
     26       0.117304  -0.012038  -0.060555   0.087296   0.154562   0.172020
                 18         19         20         21         22         23    
      0       0.014856   0.002894   0.024619  -0.004007  -0.002653  -0.000990
      1       0.077316   0.008399  -0.057209  -0.067868  -0.006652   0.025712
      2       0.003938  -0.018162  -0.003056  -0.026337  -0.002044  -0.092153
      3       0.000370   0.005487   0.018366  -0.002709   0.044709   0.000773
      4      -0.034275   0.004833  -0.044857   0.001246   0.029146  -0.002358
      5       0.001652  -0.056639  -0.003725   0.001071  -0.000347   0.008528
      6      -0.061262  -0.011837  -0.156197   0.042951  -0.440898  -0.010989
      7      -0.097382  -0.108781  -0.258899  -0.038361   0.348072   0.009110
      8      -0.066447   0.713379  -0.040026  -0.004051   0.040716   0.003442
      9      -0.063212   0.411669  -0.090671   0.005697  -0.030264   0.000419
     10       0.302049  -0.159029   0.494060   0.017284  -0.274292  -0.027927
     11      -0.183680   0.014313  -0.302017   0.024241  -0.486014  -0.049451
     12       0.006543  -0.472228  -0.059605   0.004588  -0.023695  -0.003007
     13       0.226893   0.197278   0.414065   0.031519  -0.396847   0.040014
     14       0.228514   0.092265   0.393855  -0.031206   0.452110  -0.048476
     15      -0.059156  -0.018656  -0.034368   0.001877  -0.001824  -0.007778
     16      -0.412174   0.010298   0.216138   0.360934   0.025706  -0.558312
     17      -0.437244  -0.023149   0.247411  -0.405288  -0.030599   0.621203
     18      -0.027758  -0.005144  -0.057082   0.023483  -0.000375   0.018518
     19      -0.505842  -0.055599   0.273186   0.416728   0.027938   0.268197
     20       0.342412   0.015419  -0.194078   0.720835   0.051927   0.461542
     21      -0.001868  -0.004280  -0.004671   0.000465  -0.000270  -0.000298
     22      -0.000019  -0.000556   0.003335  -0.000026   0.000081  -0.001082
     23       0.004170   0.006285  -0.002282  -0.000405  -0.000046   0.001491
     24       0.053063   0.064258  -0.040143  -0.005959   0.000229   0.010143
     25      -0.026114  -0.033011   0.024704   0.006162   0.000108   0.007819
     26      -0.016360  -0.020688   0.011870   0.002955   0.001084  -0.015467
                  24         25         26    
      0      -0.000063   0.000136   0.003976
      1       0.002379   0.000282  -0.001131
      2      -0.006427   0.004016  -0.003216
      3      -0.033384  -0.038385   0.000044
      4       0.056851   0.058085  -0.000278
      5      -0.069099   0.066072   0.000043
      6       0.409864   0.496425   0.001329
      7      -0.320795  -0.389941  -0.000588
      8      -0.042649  -0.043761   0.000328
      9       0.016184  -0.044215   0.000307
     10       0.160944  -0.373520   0.000715
     11       0.274520  -0.659357   0.000689
     12      -0.032819   0.002491  -0.001300
     13      -0.515420   0.075029  -0.000937
     14       0.586481  -0.079597   0.000349
     15      -0.004960   0.001621  -0.001054
     16      -0.046292   0.015040  -0.008254
     17       0.048708  -0.018504   0.010983
     18       0.004005  -0.005555   0.001961
     19       0.017951  -0.021922   0.001803
     20       0.031691  -0.032946   0.008513
     21       0.000256   0.000326  -0.001351
     22      -0.000228  -0.000006   0.042197
     23       0.000210  -0.000130  -0.046832
     24       0.002209  -0.000175  -0.027695
     25       0.001468  -0.000064  -0.645704
     26      -0.002155   0.001078   0.760277


-----------
IR SPECTRUM
-----------

 Mode    freq (cm**-1)   T**2         TX         TY         TZ
-------------------------------------------------------------------
   6:       236.34    1.745503  (  0.153039   1.247256   0.407964)
   7:       373.25   78.866822  ( -5.226866  -5.015507  -5.137254)
   8:       455.98    9.807573  ( -1.414004  -2.501011  -1.246239)
   9:       935.52    2.323154  ( -0.565022   0.967617   1.033258)
  10:      1066.77    0.084809  ( -0.185867   0.189884  -0.119194)
  11:      1247.54   12.824139  ( -1.717869   3.106192  -0.473960)
  12:      1273.39   12.857848  ( -3.206973   0.371871  -1.560411)
  13:      1349.87    7.490677  ( -0.768040   2.277721   1.308732)
  14:      1512.85    1.586284  (  1.229570  -0.262965   0.072747)
  15:      1659.64   12.593726  (  3.308107  -0.092250   1.281266)
  16:      1722.92    5.714681  ( -1.930030   1.373555   0.320958)
  17:      1744.95   21.915445  ( -4.429153   1.498001   0.232464)
  18:      1814.41    1.206993  ( -0.046625   0.948970  -0.551612)
  19:      1826.13    2.341539  (  0.491350  -0.511419   1.355937)
  20:      1840.46    0.231342  ( -0.191102   0.318527   0.305553)
  21:      3559.41   11.254267  ( -0.174923  -3.018703  -1.452962)
  22:      3567.60    0.711524  (  0.560539   0.451481  -0.439869)
  23:      3682.51    3.940099  ( -0.096073  -0.369753  -1.947858)
  24:      3748.94    1.634550  ( -0.139913   0.764902  -1.014840)
  25:      3758.08    0.643334  ( -0.194763   0.412253   0.659886)
  26:      4224.03   26.244976  (  1.026499   2.898219  -4.097756)

The first frequency considered to be a vibration is 6
The total number of vibrations considered is 21


--------------------------
THERMOCHEMISTRY AT 298.15K
--------------------------

Temperature         ... 298.15 K
Pressure            ... 1.00 atm
Total Mass          ... 46.07 AMU

Throughout the following assumptions are being made:
  (1) The electronic state is orbitally nondegenerate
  (2) There are no thermally accessible electronically excited states
  (3) Hindered rotations indicated by low frequency modes are not
      treated as such but are treated as vibrations and this may
      cause some error
  (4) All equations used are the standard statistical mechanics
      equations for an ideal gas
  (5) All vibrations are strictly harmonic

freq.     236.34  E(vib)   ...       0.32 
freq.     373.25  E(vib)   ...       0.21 
freq.     455.98  E(vib)   ...       0.16 
freq.     935.52  E(vib)   ...       0.03 
freq.    1066.77  E(vib)   ...       0.02 
freq.    1247.54  E(vib)   ...       0.01 
freq.    1273.39  E(vib)   ...       0.01 
freq.    1349.87  E(vib)   ...       0.01 
freq.    1512.85  E(vib)   ...       0.00 
freq.    1659.64  E(vib)   ...       0.00 
freq.    1722.92  E(vib)   ...       0.00 
freq.    1744.95  E(vib)   ...       0.00 
freq.    1814.41  E(vib)   ...       0.00 
freq.    1826.13  E(vib)   ...       0.00 
freq.    1840.46  E(vib)   ...       0.00 
freq.    3559.41  E(vib)   ...       0.00 
freq.    3567.60  E(vib)   ...       0.00 
freq.    3682.51  E(vib)   ...       0.00 
freq.    3748.94  E(vib)   ...       0.00 
freq.    3758.08  E(vib)   ...       0.00 
freq.    4224.03  E(vib)   ...       0.00 

------------
INNER ENERGY
------------

The inner energy is: U= E(el) + E(ZPE) + E(vib) + E(rot) + E(trans)
    E(el)   - is the total energy from the electronic structure calculation
              = E(kin-el) + E(nuc-el) + E(el-el) + E(nuc-nuc)
    E(ZPE)  - the the zero temperature vibrational energy from the frequency calculation
    E(vib)  - the the finite temperature correction to E(ZPE) due to population
              of excited vibrational states
    E(rot)  - is the rotational thermal energy
    E(trans)- is the translational thermal energy

Summary of contributions to the inner energy U:
Electronic energy                ...   -152.13306611 Eh
Zero point energy                ...      0.09477314 Eh      59.47 kcal/mol
Thermal vibrational correction   ...      0.00122670 Eh       0.77 kcal/mol
Thermal rotational correction    ...      0.00141627 Eh       0.89 kcal/mol
Thermal translational correction ...      0.00141627 Eh       0.89 kcal/mol
-----------------------------------------------------------------------
Total thermal energy                   -152.03423373 Eh


Summary of corrections to the electronic energy:
(perhaps to be used in another calculation)
Total thermal correction                  0.00405925 Eh       2.55 kcal/mol
Non-thermal (ZPE) correction              0.09477314 Eh      59.47 kcal/mol
-----------------------------------------------------------------------
Total correction                          0.09883239 Eh      62.02 kcal/mol


--------
ENTHALPY
--------

The enthalpy is H = U + kB*T
                kB is Boltzmann's constant
Total free energy                 ...   -152.03423373 Eh 
Thermal Enthalpy correction       ...      0.00094421 Eh       0.59 kcal/mol
-----------------------------------------------------------------------
Total Enthalpy                    ...   -152.03328952 Eh


Vibrational entropy computed according to the QRRHO of S. Grimme
Chem.Eur.J. 2012 18 9955


-------
ENTROPY
-------

The entropy contributions are T*S = T*(S(el)+S(vib)+S(rot)+S(trans)
     S(el)   - electronic entropy
     S(vib)  - vibrational entropy
     S(rot)  - rotational entropy
     S(trans)- translational entropy
The entropies will be listed as mutliplied by the temperature to get
units of energy

Electronic entropy                ...      0.00000000 Eh      0.00 kcal/mol
Vibrational entropy               ...      0.00189937 Eh      1.19 kcal/mol
Rotational entropy                ...      0.00960872 Eh      6.03 kcal/mol
Translational entropy             ...      0.01777359 Eh     11.15 kcal/mol
-----------------------------------------------------------------------
Final entropy term                ...      0.02928168 Eh     18.37 kcal/mol


CAUTION: The rotational entropy is not quite correctly treated here
         because it includes a symmetry number that is not yet correctly
         implemented in ORCA!
For a nonlinear molecule the correct rotational entropy is:
    S(rot) = R*(ln(qrot/sn)+1.5)
    R    = 8.31441 J/mol/K = 1.987191683e-3 kcal/mol/K
    qrot = 17595.3079489
    sn is the rotational symmetry number. We have assumed 3 here
       if it is different for your molecule then you should correct
       the printed rotational entropy by manually evaluating the equation
       as given above

For convenience we print out the resulting values for sn=1 - 12:
 sn= 1  qrot/sn=   17595.3079 T*S(rot)=     6.68 kcal/mol T*S(tot)=    19.03 kcal/mol
 sn= 2  qrot/sn=    8797.6540 T*S(rot)=     6.27 kcal/mol T*S(tot)=    18.61 kcal/mol
 sn= 3  qrot/sn=    5865.1026 T*S(rot)=     6.03 kcal/mol T*S(tot)=    18.37 kcal/mol
 sn= 4  qrot/sn=    4398.8270 T*S(rot)=     5.86 kcal/mol T*S(tot)=    18.20 kcal/mol
 sn= 5  qrot/sn=    3519.0616 T*S(rot)=     5.73 kcal/mol T*S(tot)=    18.07 kcal/mol
 sn= 6  qrot/sn=    2932.5513 T*S(rot)=     5.62 kcal/mol T*S(tot)=    17.96 kcal/mol
 sn= 7  qrot/sn=    2513.6154 T*S(rot)=     5.53 kcal/mol T*S(tot)=    17.87 kcal/mol
 sn= 8  qrot/sn=    2199.4135 T*S(rot)=     5.45 kcal/mol T*S(tot)=    17.79 kcal/mol
 sn= 9  qrot/sn=    1955.0342 T*S(rot)=     5.38 kcal/mol T*S(tot)=    17.72 kcal/mol
 sn=10  qrot/sn=    1759.5308 T*S(rot)=     5.32 kcal/mol T*S(tot)=    17.66 kcal/mol
 sn=11  qrot/sn=    1599.5734 T*S(rot)=     5.26 kcal/mol T*S(tot)=    17.60 kcal/mol
 sn=12  qrot/sn=    1466.2757 T*S(rot)=     5.21 kcal/mol T*S(tot)=    17.55 kcal/mol


-------------------
GIBBS FREE ENTHALPY
-------------------

The Gibbs free enthalpy is G = H - T*S

Total enthalpy                    ...   -152.03328952 Eh 
Total entropy correction          ...     -0.02928168 Eh    -18.37 kcal/mol
-----------------------------------------------------------------------
Final Gibbs free enthalpy         ...   -152.06257120 Eh

For completeness - the Gibbs free enthalpy minus the electronic energy
G-E(el)                           ...      0.07049492 Eh     44.24 kcal/mol


Timings for individual modules:

Sum of individual times         ...        3.141 sec (=   0.052 min)
GTO integral calculation        ...        0.293 sec (=   0.005 min)   9.3 %
SCF iterations                  ...        1.358 sec (=   0.023 min)  43.2 %
SCF Gradient evaluation         ...        0.140 sec (=   0.002 min)   4.5 %
Geometry relaxation             ...        0.022 sec (=   0.000 min)   0.7 %
Analytical frequency calculation...        1.327 sec (=   0.022 min)  42.3 %
                             ****ORCA TERMINATED NORMALLY****
TOTAL RUN TIME: 0 days 0 hours 0 minutes 3 seconds 261 msec
