 Entering Gaussian System, Link 0=/home/programs/G09_64/g09/g09
 Initial command:
 /home/programs/G09_64/g09/l1.exe /scratch/Gau-19915.inp -scrdir=/scratch/
 Entering Link 1 = /home/programs/G09_64/g09/l1.exe PID=     19917.
  
 Copyright (c) 1988,1990,1992,1993,1995,1998,2003,2009,2010,
            Gaussian, Inc.  All Rights Reserved.
  
 This is part of the Gaussian(R) 09 program.  It is based on
 the Gaussian(R) 03 system (copyright 2003, Gaussian, Inc.),
 the Gaussian(R) 98 system (copyright 1998, Gaussian, Inc.),
 the Gaussian(R) 94 system (copyright 1995, Gaussian, Inc.),
 the Gaussian 92(TM) system (copyright 1992, Gaussian, Inc.),
 the Gaussian 90(TM) system (copyright 1990, Gaussian, Inc.),
 the Gaussian 88(TM) system (copyright 1988, Gaussian, Inc.),
 the Gaussian 86(TM) system (copyright 1986, Carnegie Mellon
 University), and the Gaussian 82(TM) system (copyright 1983,
 Carnegie Mellon University). Gaussian is a federally registered
 trademark of Gaussian, Inc.
  
 This software contains proprietary and confidential information,
 including trade secrets, belonging to Gaussian, Inc.
  
 This software is provided under written license and may be
 used, copied, transmitted, or stored only in accord with that
 written license.
  
 The following legend is applicable only to US Government
 contracts under FAR:
  
                    RESTRICTED RIGHTS LEGEND
  
 Use, reproduction and disclosure by the US Government is
 subject to restrictions as set forth in subparagraphs (a)
 and (c) of the Commercial Computer Software - Restricted
 Rights clause in FAR 52.227-19.
  
 Gaussian, Inc.
 340 Quinnipiac St., Bldg. 40, Wallingford CT 06492
  
  
 ---------------------------------------------------------------
 Warning -- This program may not be used in any manner that
 competes with the business of Gaussian, Inc. or will provide
 assistance to any competitor of Gaussian, Inc.  The licensee
 of this program is prohibited from giving any competitor of
 Gaussian, Inc. access to this program.  By using this program,
 the user acknowledges that Gaussian, Inc. is engaged in the
 business of creating and licensing software in the field of
 computational chemistry and represents and warrants to the
 licensee that it is not a competitor of Gaussian, Inc. and that
 it will not use this program in any manner prohibited above.
 ---------------------------------------------------------------
  

 Cite this work as:
 Gaussian 09, Revision B.01,
 M. J. Frisch, G. W. Trucks, H. B. Schlegel, G. E. Scuseria, 
 M. A. Robb, J. R. Cheeseman, G. Scalmani, V. Barone, B. Mennucci, 
 G. A. Petersson, H. Nakatsuji, M. Caricato, X. Li, H. P. Hratchian, 
 A. F. Izmaylov, J. Bloino, G. Zheng, J. L. Sonnenberg, M. Hada, 
 M. Ehara, K. Toyota, R. Fukuda, J. Hasegawa, M. Ishida, T. Nakajima, 
 Y. Honda, O. Kitao, H. Nakai, T. Vreven, J. A. Montgomery, Jr., 
 J. E. Peralta, F. Ogliaro, M. Bearpark, J. J. Heyd, E. Brothers, 
 K. N. Kudin, V. N. Staroverov, T. Keith, R. Kobayashi, J. Normand, 
 K. Raghavachari, A. Rendell, J. C. Burant, S. S. Iyengar, J. Tomasi, 
 M. Cossi, N. Rega, J. M. Millam, M. Klene, J. E. Knox, J. B. Cross, 
 V. Bakken, C. Adamo, J. Jaramillo, R. Gomperts, R. E. Stratmann, 
 O. Yazyev, A. J. Austin, R. Cammi, C. Pomelli, J. W. Ochterski, 
 R. L. Martin, K. Morokuma, V. G. Zakrzewski, G. A. Voth, 
 P. Salvador, J. J. Dannenberg, S. Dapprich, A. D. Daniels, 
 O. Farkas, J. B. Foresman, J. V. Ortiz, J. Cioslowski, 
 and D. J. Fox, Gaussian, Inc., Wallingford CT, 2010.
 
 ******************************************
 Gaussian 09:  AM64L-G09RevB.01 12-Aug-2010
                 4-Dec-2019 
 ******************************************
 %nproc=8
 Will use up to    8 processors via shared memory.
 %mem=6GB
 %chk=EtOH_a.chk
 ---------------------------------------------------
 #p ONIOM(hf/3-21g:hf/sto-3g) opt=tight freq=noraman
 ---------------------------------------------------
 1/7=10,18=20,19=15,38=1,52=2/1,3;
 2/9=110,12=2,17=6,18=5,40=1/2;
 1/7=10,18=20,19=15,38=1,52=2,53=3172/20;
 3/6=3,11=9,16=1,25=1,30=1,71=1/1,2,3;
 4//1;
 5/5=2,38=5/2;
 6/7=2,8=2,9=2,10=2,28=1/1;
 7/7=1,33=-1/1,2,3,16;
 1/7=10,18=20,19=15,52=2,53=2032/20;
 3/5=5,11=9,16=1,25=1,30=1,71=1/1,2,3;
 4//1;
 5/5=2,38=5/2;
 6/7=2,8=2,9=2,10=2,28=1/1;
 7/7=1,33=-1/1,2,3,16;
 1/7=10,18=20,19=15,52=2,53=1022/20;
 3/6=3,11=9,16=1,25=1,30=1,71=1/1,2,3;
 4//1;
 5/5=2,38=5/2;
 6/7=2,8=2,9=2,10=2,28=1/1;
 7/7=1,33=-1/1,2,3,16;
 1/7=10,18=20,19=15,52=2,53=3015/20;
 7/9=1,44=-1/16;
 1/7=10,18=20,19=15,52=2/3(2);
 2/9=110/2;
 99//99;
 2/9=110/2;
 1/7=10,18=20,19=15,52=2,53=3173/20;
 3/6=3,11=9,16=1,25=1,30=1,71=1/1,2,3;
 4/5=5,16=3/1;
 5/5=2,38=5/2;
 7/7=1,33=-1/1,2,3,16;
 1/7=10,18=20,19=15,52=2,53=2033/20;
 3/5=5,11=9,16=1,25=1,30=1,71=1/1,2,3;
 4/5=5,16=3/1;
 5/5=2,38=5/2;
 7/7=1,33=-1/1,2,3,16;
 1/7=10,18=20,19=15,52=2,53=1023/20;
 3/6=3,11=9,16=1,25=1,30=1,71=1/1,2,3;
 4/5=5,16=3/1;
 5/5=2,38=5/2;
 7/7=1,33=-1/1,2,3,16;
 1/7=10,18=20,19=15,52=2,53=3015/20;
 7/9=1,44=-1/16;
 1/7=10,18=20,19=15,52=2/3(-18);
 2/9=110/2;
 99//99;
 Leave Link    1 at Wed Dec  4 10:26:07 2019, MaxMem=  805306368 cpu:       0.2
 (Enter /home/programs/G09_64/g09/l101.exe)
 -----------------------
 Ethanol, anti conformer
 -----------------------
 Symbolic Z-matrix:
 Charge =  0 Multiplicity = 1 for low   level calculation on real  system.
 Charge =  0 Multiplicity = 1 for high  level calculation on model system.
 Charge =  0 Multiplicity = 1 for low   level calculation on model system.
 8                     1.07021  -0.69215   0.01581  H 
 6                     2.45937  -0.83337   0.058    H 
 6                     3.17356   0.49827  -0.06715  H 
 1                     0.46616  -1.51948   0.01297  H 
 1                     4.24405   0.36214   0.01606  H 
 1                     2.84358   1.17039   0.71428  H 
 1                     2.95452   0.95503  -1.0267   H 
 1                     2.8425   -1.59133  -0.61356  H 
 1                     2.81785  -1.30249   1.2486   H 
 8                    -0.45408   0.54482  -1.7626   L 
 1                     0.31869   0.11478  -1.32254  L 
 1                    -0.49278   1.47587  -1.30274  L 
 8                    -0.48992   2.52912  -0.44683  L 
 1                     0.29483   3.10409  -0.57914  L 
 1                    -0.31122   2.03855   0.45504  L 
 8                    -0.11245   1.15205   1.45562  L 
 1                    -1.00997   0.73042   1.5999   L 
 1                     0.4217    0.42435   1.04357  L 
 8                    -2.38611   0.07911   1.46185  L 
 1                    -3.09982   0.7552    1.47461  L 
 1                    -2.41948  -0.27346   0.52001  L 
 8                    -0.54206  -2.45176  -0.09036  L 
 1                    -1.30662  -1.87529  -0.44977  L 
 1                    -0.85345  -2.73414   0.79733  L 
 8                    -2.1243   -0.79437  -0.86072  L 
 1                    -1.40181  -0.13757  -1.35958  L 
 1                    -2.83809  -1.00357  -1.49774  L 
 
 NAtoms=     27 NQM=     27 NQMF=      0 NMic=      0 NMicF=      0 NTot=     27.
                    Isotopes and Nuclear Properties:
 (Nuclear quadrupole moments (NQMom) in fm**2, nuclear magnetic moments (NMagM)
  in nuclear magnetons)

  Atom         1           2           3           4           5           6           7           8           9          10
 IAtWgt=          16          12          12           1           1           1           1           1           1          16
 AtmWgt=  15.9949146  12.0000000  12.0000000   1.0078250   1.0078250   1.0078250   1.0078250   1.0078250   1.0078250  15.9949146
 NucSpn=           0           0           0           1           1           1           1           1           1           0
 AtZEff=   0.0000000   0.0000000   0.0000000   0.0000000   0.0000000   0.0000000   0.0000000   0.0000000   0.0000000   0.0000000
 NQMom=    0.0000000   0.0000000   0.0000000   0.0000000   0.0000000   0.0000000   0.0000000   0.0000000   0.0000000   0.0000000
 NMagM=    0.0000000   0.0000000   0.0000000   2.7928460   2.7928460   2.7928460   2.7928460   2.7928460   2.7928460   0.0000000

  Atom        11          12          13          14          15          16          17          18          19          20
 IAtWgt=           1           1          16           1           1          16           1           1          16           1
 AtmWgt=   1.0078250   1.0078250  15.9949146   1.0078250   1.0078250  15.9949146   1.0078250   1.0078250  15.9949146   1.0078250
 NucSpn=           1           1           0           1           1           0           1           1           0           1
 AtZEff=   0.0000000   0.0000000   0.0000000   0.0000000   0.0000000   0.0000000   0.0000000   0.0000000   0.0000000   0.0000000
 NQMom=    0.0000000   0.0000000   0.0000000   0.0000000   0.0000000   0.0000000   0.0000000   0.0000000   0.0000000   0.0000000
 NMagM=    2.7928460   2.7928460   0.0000000   2.7928460   2.7928460   0.0000000   2.7928460   2.7928460   0.0000000   2.7928460

  Atom        21          22          23          24          25          26          27
 IAtWgt=           1          16           1           1          16           1           1
 AtmWgt=   1.0078250  15.9949146   1.0078250   1.0078250  15.9949146   1.0078250   1.0078250
 NucSpn=           1           0           1           1           0           1           1
 AtZEff=   0.0000000   0.0000000   0.0000000   0.0000000   0.0000000   0.0000000   0.0000000
 NQMom=    0.0000000   0.0000000   0.0000000   0.0000000   0.0000000   0.0000000   0.0000000
 NMagM=    2.7928460   0.0000000   2.7928460   2.7928460   0.0000000   2.7928460   2.7928460
 Leave Link  101 at Wed Dec  4 10:26:07 2019, MaxMem=  805306368 cpu:       0.8
 (Enter /home/programs/G09_64/g09/l103.exe)

 GradGradGradGradGradGradGradGradGradGradGradGradGradGradGradGradGradGrad
 Berny optimization.
 Initialization pass.
                           ----------------------------
                           !    Initial Parameters    !
                           ! (Angstroms and Degrees)  !
 --------------------------                            --------------------------
 ! Name  Definition              Value          Derivative Info.                !
 --------------------------------------------------------------------------------
 ! R1    R(1,2)                  1.397          estimate D2E/DX2                !
 ! R2    R(1,4)                  1.0244         estimate D2E/DX2                !
 ! R3    R(1,11)                 1.7341         estimate D2E/DX2                !
 ! R4    R(1,18)                 1.6503         estimate D2E/DX2                !
 ! R5    R(2,3)                  1.5162         estimate D2E/DX2                !
 ! R6    R(2,8)                  1.0827         estimate D2E/DX2                !
 ! R7    R(2,9)                  1.3289         estimate D2E/DX2                !
 ! R8    R(3,5)                  1.0823         estimate D2E/DX2                !
 ! R9    R(3,6)                  1.0822         estimate D2E/DX2                !
 ! R10   R(3,7)                  1.0851         estimate D2E/DX2                !
 ! R11   R(4,22)                 1.3771         estimate D2E/DX2                !
 ! R12   R(10,11)                0.9878         estimate D2E/DX2                !
 ! R13   R(10,12)                1.0391         estimate D2E/DX2                !
 ! R14   R(10,26)                1.2354         estimate D2E/DX2                !
 ! R15   R(12,13)                1.3572         estimate D2E/DX2                !
 ! R16   R(13,14)                0.9818         estimate D2E/DX2                !
 ! R17   R(13,15)                1.0421         estimate D2E/DX2                !
 ! R18   R(15,16)                1.3515         estimate D2E/DX2                !
 ! R19   R(16,17)                1.0021         estimate D2E/DX2                !
 ! R20   R(16,18)                0.9923         estimate D2E/DX2                !
 ! R21   R(17,19)                1.5287         estimate D2E/DX2                !
 ! R22   R(19,20)                0.9832         estimate D2E/DX2                !
 ! R23   R(19,21)                1.0062         estimate D2E/DX2                !
 ! R24   R(21,25)                1.505          estimate D2E/DX2                !
 ! R25   R(22,23)                1.0228         estimate D2E/DX2                !
 ! R26   R(22,24)                0.9822         estimate D2E/DX2                !
 ! R27   R(23,25)                1.4163         estimate D2E/DX2                !
 ! R28   R(25,26)                1.0965         estimate D2E/DX2                !
 ! R29   R(25,27)                0.9793         estimate D2E/DX2                !
 ! A1    A(2,1,4)              120.3188         estimate D2E/DX2                !
 ! A2    A(2,1,11)             120.0872         estimate D2E/DX2                !
 ! A3    A(2,1,18)             116.1268         estimate D2E/DX2                !
 ! A4    A(4,1,11)              96.7842         estimate D2E/DX2                !
 ! A5    A(4,1,18)             108.4461         estimate D2E/DX2                !
 ! A6    A(11,1,18)             89.744          estimate D2E/DX2                !
 ! A7    A(1,2,3)              112.1553         estimate D2E/DX2                !
 ! A8    A(1,2,8)              113.8237         estimate D2E/DX2                !
 ! A9    A(1,2,9)              109.3291         estimate D2E/DX2                !
 ! A10   A(3,2,8)              113.387          estimate D2E/DX2                !
 ! A11   A(3,2,9)              104.8866         estimate D2E/DX2                !
 ! A12   A(8,2,9)              102.3049         estimate D2E/DX2                !
 ! A13   A(2,3,5)              110.4308         estimate D2E/DX2                !
 ! A14   A(2,3,6)              110.0114         estimate D2E/DX2                !
 ! A15   A(2,3,7)              110.3414         estimate D2E/DX2                !
 ! A16   A(5,3,6)              108.9155         estimate D2E/DX2                !
 ! A17   A(5,3,7)              108.6995         estimate D2E/DX2                !
 ! A18   A(6,3,7)              108.3932         estimate D2E/DX2                !
 ! A19   A(1,4,22)             168.1548         estimate D2E/DX2                !
 ! A20   A(11,10,12)           102.8296         estimate D2E/DX2                !
 ! A21   A(11,10,26)           102.3768         estimate D2E/DX2                !
 ! A22   A(12,10,26)           108.7814         estimate D2E/DX2                !
 ! A23   A(1,11,10)            152.3058         estimate D2E/DX2                !
 ! A24   A(10,12,13)           166.9929         estimate D2E/DX2                !
 ! A25   A(12,13,14)           111.7881         estimate D2E/DX2                !
 ! A26   A(12,13,15)           100.4176         estimate D2E/DX2                !
 ! A27   A(14,13,15)           104.7884         estimate D2E/DX2                !
 ! A28   A(13,15,16)           167.0924         estimate D2E/DX2                !
 ! A29   A(15,16,17)           104.5286         estimate D2E/DX2                !
 ! A30   A(15,16,18)           104.6415         estimate D2E/DX2                !
 ! A31   A(17,16,18)           103.4951         estimate D2E/DX2                !
 ! A32   A(16,17,19)           166.5395         estimate D2E/DX2                !
 ! A33   A(1,18,16)            165.081          estimate D2E/DX2                !
 ! A34   A(17,19,20)           111.0582         estimate D2E/DX2                !
 ! A35   A(17,19,21)           105.2873         estimate D2E/DX2                !
 ! A36   A(20,19,21)           103.2397         estimate D2E/DX2                !
 ! A37   A(19,21,25)           166.7879         estimate D2E/DX2                !
 ! A38   A(4,22,23)            101.075          estimate D2E/DX2                !
 ! A39   A(4,22,24)            111.0354         estimate D2E/DX2                !
 ! A40   A(23,22,24)           104.0431         estimate D2E/DX2                !
 ! A41   A(22,23,25)           164.5207         estimate D2E/DX2                !
 ! A42   A(21,25,23)            96.3841         estimate D2E/DX2                !
 ! A43   A(21,25,26)           109.8352         estimate D2E/DX2                !
 ! A44   A(21,25,27)           121.8545         estimate D2E/DX2                !
 ! A45   A(23,25,26)           102.0498         estimate D2E/DX2                !
 ! A46   A(23,25,27)           116.5198         estimate D2E/DX2                !
 ! A47   A(26,25,27)           108.1975         estimate D2E/DX2                !
 ! A48   A(10,26,25)           169.9873         estimate D2E/DX2                !
 ! D1    D(4,1,2,3)            175.0048         estimate D2E/DX2                !
 ! D2    D(4,1,2,8)             44.5917         estimate D2E/DX2                !
 ! D3    D(4,1,2,9)            -69.0964         estimate D2E/DX2                !
 ! D4    D(11,1,2,3)            55.2049         estimate D2E/DX2                !
 ! D5    D(11,1,2,8)           -75.2082         estimate D2E/DX2                !
 ! D6    D(11,1,2,9)           171.1036         estimate D2E/DX2                !
 ! D7    D(18,1,2,3)           -50.9611         estimate D2E/DX2                !
 ! D8    D(18,1,2,8)           178.6258         estimate D2E/DX2                !
 ! D9    D(18,1,2,9)            64.9376         estimate D2E/DX2                !
 ! D10   D(2,1,4,22)          -161.2827         estimate D2E/DX2                !
 ! D11   D(11,1,4,22)          -30.4078         estimate D2E/DX2                !
 ! D12   D(18,1,4,22)           61.5943         estimate D2E/DX2                !
 ! D13   D(2,1,11,10)         -166.8107         estimate D2E/DX2                !
 ! D14   D(4,1,11,10)           62.1591         estimate D2E/DX2                !
 ! D15   D(18,1,11,10)         -46.3899         estimate D2E/DX2                !
 ! D16   D(2,1,18,16)          137.8524         estimate D2E/DX2                !
 ! D17   D(4,1,18,16)          -83.0075         estimate D2E/DX2                !
 ! D18   D(11,1,18,16)          14.06           estimate D2E/DX2                !
 ! D19   D(1,2,3,5)            177.3117         estimate D2E/DX2                !
 ! D20   D(1,2,3,6)             57.0581         estimate D2E/DX2                !
 ! D21   D(1,2,3,7)            -62.4908         estimate D2E/DX2                !
 ! D22   D(8,2,3,5)            -52.052          estimate D2E/DX2                !
 ! D23   D(8,2,3,6)           -172.3056         estimate D2E/DX2                !
 ! D24   D(8,2,3,7)             68.1455         estimate D2E/DX2                !
 ! D25   D(9,2,3,5)             58.7547         estimate D2E/DX2                !
 ! D26   D(9,2,3,6)            -61.4989         estimate D2E/DX2                !
 ! D27   D(9,2,3,7)            178.9522         estimate D2E/DX2                !
 ! D28   D(1,4,22,23)           -0.0527         estimate D2E/DX2                !
 ! D29   D(1,4,22,24)         -109.9409         estimate D2E/DX2                !
 ! D30   D(12,10,11,1)          76.5898         estimate D2E/DX2                !
 ! D31   D(26,10,11,1)         -36.2423         estimate D2E/DX2                !
 ! D32   D(11,10,12,13)        -42.7711         estimate D2E/DX2                !
 ! D33   D(26,10,12,13)         65.2662         estimate D2E/DX2                !
 ! D34   D(11,10,26,25)         20.5154         estimate D2E/DX2                !
 ! D35   D(12,10,26,25)        -87.8301         estimate D2E/DX2                !
 ! D36   D(10,12,13,14)        110.6342         estimate D2E/DX2                !
 ! D37   D(10,12,13,15)         -0.0358         estimate D2E/DX2                !
 ! D38   D(12,13,15,16)         -6.9441         estimate D2E/DX2                !
 ! D39   D(14,13,15,16)       -122.9753         estimate D2E/DX2                !
 ! D40   D(13,15,16,17)        -69.583          estimate D2E/DX2                !
 ! D41   D(13,15,16,18)         38.8905         estimate D2E/DX2                !
 ! D42   D(15,16,17,19)         43.3844         estimate D2E/DX2                !
 ! D43   D(18,16,17,19)        -65.9285         estimate D2E/DX2                !
 ! D44   D(15,16,18,1)         -35.1141         estimate D2E/DX2                !
 ! D45   D(17,16,18,1)          74.1148         estimate D2E/DX2                !
 ! D46   D(16,17,19,20)        -93.5018         estimate D2E/DX2                !
 ! D47   D(16,17,19,21)         17.5774         estimate D2E/DX2                !
 ! D48   D(17,19,21,25)         23.0156         estimate D2E/DX2                !
 ! D49   D(20,19,21,25)        139.5654         estimate D2E/DX2                !
 ! D50   D(19,21,25,23)         54.6017         estimate D2E/DX2                !
 ! D51   D(19,21,25,26)        -50.6864         estimate D2E/DX2                !
 ! D52   D(19,21,25,27)       -178.6373         estimate D2E/DX2                !
 ! D53   D(4,22,23,25)         -10.7236         estimate D2E/DX2                !
 ! D54   D(24,22,23,25)        104.4893         estimate D2E/DX2                !
 ! D55   D(22,23,25,21)        -70.6564         estimate D2E/DX2                !
 ! D56   D(22,23,25,26)         41.2449         estimate D2E/DX2                !
 ! D57   D(22,23,25,27)        158.8518         estimate D2E/DX2                !
 ! D58   D(21,25,26,10)         62.4768         estimate D2E/DX2                !
 ! D59   D(23,25,26,10)        -38.9357         estimate D2E/DX2                !
 ! D60   D(27,25,26,10)       -162.356          estimate D2E/DX2                !
 --------------------------------------------------------------------------------
 Trust Radius=3.00D-01 FncErr=1.00D-07 GrdErr=1.00D-07
 Number of steps in this run=    147 maximum allowed number of steps=    162.
 GradGradGradGradGradGradGradGradGradGradGradGradGradGradGradGradGradGrad

 Leave Link  103 at Wed Dec  4 10:26:07 2019, MaxMem=  805306368 cpu:       0.1
 (Enter /home/programs/G09_64/g09/l202.exe)
                          Input orientation:                          
 ---------------------------------------------------------------------
 Center     Atomic      Atomic             Coordinates (Angstroms)
 Number     Number       Type             X           Y           Z
 ---------------------------------------------------------------------
      1          8           0        1.070211   -0.692145    0.015806
      2          6           0        2.459367   -0.833374    0.058004
      3          6           0        3.173565    0.498268   -0.067151
      4          1           0        0.466161   -1.519482    0.012967
      5          1           0        4.244049    0.362140    0.016060
      6          1           0        2.843581    1.170386    0.714277
      7          1           0        2.954520    0.955034   -1.026698
      8          1           0        2.842500   -1.591332   -0.613557
      9          1           0        2.817851   -1.302487    1.248604
     10          8           0       -0.454077    0.544823   -1.762599
     11          1           0        0.318689    0.114783   -1.322544
     12          1           0       -0.492778    1.475870   -1.302737
     13          8           0       -0.489921    2.529118   -0.446829
     14          1           0        0.294833    3.104088   -0.579141
     15          1           0       -0.311220    2.038552    0.455035
     16          8           0       -0.112451    1.152049    1.455622
     17          1           0       -1.009973    0.730416    1.599901
     18          1           0        0.421704    0.424347    1.043571
     19          8           0       -2.386109    0.079108    1.461847
     20          1           0       -3.099824    0.755203    1.474610
     21          1           0       -2.419475   -0.273458    0.520011
     22          8           0       -0.542057   -2.451759   -0.090360
     23          1           0       -1.306619   -1.875285   -0.449773
     24          1           0       -0.853449   -2.734144    0.797330
     25          8           0       -2.124299   -0.794366   -0.860724
     26          1           0       -1.401809   -0.137566   -1.359580
     27          1           0       -2.838093   -1.003574   -1.497741
 ---------------------------------------------------------------------
                    Distance matrix (angstroms):
                    1          2          3          4          5
     1  O    0.000000
     2  C    1.396954   0.000000
     3  C    2.418277   1.516250   0.000000
     4  H    1.024388   2.108469   3.377539   0.000000
     5  H    3.344363   2.148512   1.082308   4.220539   0.000000
     6  H    2.664906   2.143215   1.082248   3.657780   1.761272
     7  H    2.711205   2.149455   1.085056   3.660063   1.761179
     8  H    2.084621   1.082721   2.185084   2.458593   2.485319
     9  H    2.224085   1.328949   2.258420   2.665395   2.514794
    10  O    2.648824   3.701645   4.004560   2.874166   5.026867
    11  H    1.734099   2.717980   3.142195   2.115694   4.154696
    12  H    2.980231   3.987403   3.990545   3.409219   5.041542
    13  O    3.608958   4.501056   4.205905   4.185292   5.226905
    14  H    3.920020   4.538146   3.916571   4.664477   4.844466
    15  H    3.091598   4.010205   3.845631   3.668699   4.873760
    16  O    2.621605   3.536876   3.680240   3.090813   4.655683
    17  H    2.976609   4.105996   4.509428   3.123999   5.499902
    18  H    1.650278   2.589455   2.968486   2.200589   3.958531
    19  O    3.825182   5.126601   5.781307   3.576337   6.791863
    20  H    4.648883   5.952727   6.465172   4.475136   7.497622
    21  H    3.550694   4.932551   5.676479   3.183797   6.712712
    22  O    2.388916   3.413170   4.744370   1.377070   5.553032
    23  H    2.695534   3.940313   5.084506   1.866406   6.002748
    24  H    2.912217   3.890280   5.235710   1.957549   6.015135
    25  O    3.314159   4.674995   5.510719   2.828359   6.531624
    26  H    2.882729   4.171615   4.796739   2.698683   5.832478
    27  H    4.202696   5.523802   6.359414   3.669672   7.369770
                    6          7          8          9         10
     6  H    0.000000
     7  H    1.757748   0.000000
     8  H    3.064348   2.582095   0.000000
     9  H    2.530073   3.208127   1.884591   0.000000
    10  O    4.171426   3.511176   4.092783   4.815123   0.000000
    11  H    3.411454   2.782293   3.127797   3.855550   0.987801
    12  H    3.910621   3.497332   4.583315   5.018852   1.039144
    13  O    3.782401   3.831209   5.301975   5.338262   2.381168
    14  H    3.450833   3.448576   5.342168   5.396682   2.917409
    15  H    3.282330   3.746278   4.925840   4.645792   2.677599
    16  O    3.047631   3.950574   4.532039   3.828090   3.292777
    17  H    3.978414   4.760954   5.013129   4.348372   3.413191
    18  H    2.555484   3.314031   3.559394   2.960661   2.942125
    19  O    5.394387   5.956712   5.868222   5.388458   3.787702
    20  H    6.006209   6.553744   6.721449   6.269294   4.186139
    21  H    5.460969   5.725498   5.541674   5.386959   3.121327
    22  O    5.022939   4.970817   3.531189   3.795080   3.432729
    23  H    5.277811   5.147898   4.162048   4.497092   2.882232
    24  H    5.377758   5.606937   4.117847   3.966325   4.179038
    25  O    5.569624   5.374230   5.036401   5.397434   2.323025
    26  H    4.902546   4.503575   4.547982   5.095605   1.235425
    27  H    6.473063   6.132894   5.778960   6.294558   2.855033
                   11         12         13         14         15
    11  H    0.000000
    12  H    1.584749   0.000000
    13  O    2.692534   1.357173   0.000000
    14  H    3.080448   1.948080   0.981802   0.000000
    15  H    2.693967   1.854545   1.042088   1.603804   0.000000
    16  O    2.996666   2.803222   2.378681   2.848964   1.351507
    17  H    3.268797   3.041135   2.773966   3.476358   1.873551
    18  H    2.388502   2.728945   2.735400   3.135331   1.867943
    19  O    3.882015   3.630230   3.638835   4.528089   3.026261
    20  H    4.463232   3.876816   3.694631   4.610732   3.234630
    21  H    3.323143   3.177219   3.537286   4.470282   3.129593
    22  O    2.974273   4.110785   4.993889   5.639745   4.529198
    23  H    2.713619   3.552481   4.479483   5.232164   4.138552
    24  H    3.739540   4.718536   5.420518   6.107223   4.815579
    25  O    2.647267   2.830408   3.726667   4.596676   3.611634
    26  H    1.739300   1.852767   2.962407   3.741123   3.036067
    27  H    3.353608   3.418504   4.370153   5.247089   4.410550
                   16         17         18         19         20
    16  O    0.000000
    17  H    1.002066   0.000000
    18  H    0.992299   1.566167   0.000000
    19  O    2.514113   1.528729   2.859713   0.000000
    20  H    3.013676   2.093750   3.563204   0.983187   0.000000
    21  H    2.868762   2.039760   2.972094   1.006216   1.559576
    22  O    3.944877   3.633478   3.238305   3.495020   4.390434
    23  H    3.771116   3.328489   3.241216   2.939259   3.719987
    24  H    4.010601   3.559747   3.415072   3.271852   4.204813
    25  O    3.633390   3.101831   3.404957   2.495163   2.967591
    26  H    3.354238   3.108932   3.068563   2.996038   3.422415
    27  H    4.560503   3.993010   4.373043   3.183654   3.463621
                   21         22         23         24         25
    21  H    0.000000
    22  O    2.939770   0.000000
    23  H    2.178251   1.022768   0.000000
    24  H    2.929901   0.982191   1.580591   0.000000
    25  O    1.504960   2.417416   1.416286   2.850779   0.000000
    26  H    2.141722   2.775893   1.963792   3.419821   1.096465
    27  H    2.186237   3.057735   2.050251   3.492998   0.979316
                   26         27
    26  H    0.000000
    27  H    1.682846   0.000000
 Stoichiometry    C2H18O7
 Framework group  C1[X(C2H18O7)]
 Deg. of freedom    75
 Full point group                 C1      NOp   1
 Largest Abelian subgroup         C1      NOp   1
 Largest concise Abelian subgroup C1      NOp   1
                         Standard orientation:                         
 ---------------------------------------------------------------------
 Center     Atomic      Atomic             Coordinates (Angstroms)
 Number     Number       Type             X           Y           Z
 ---------------------------------------------------------------------
      1          8           0       -1.070979   -0.754775   -0.112825
      2          6           0       -2.450285   -0.953013   -0.211290
      3          6           0       -3.226607    0.339542   -0.051166
      4          1           0       -0.431313   -1.554789   -0.126091
      5          1           0       -4.286574    0.161930   -0.178897
      6          1           0       -2.900430    1.061263   -0.788721
      7          1           0       -3.060657    0.759441    0.935491
      8          1           0       -2.822002   -1.757484    0.410754
      9          1           0       -2.747080   -1.380280   -1.434181
     10          8           0        0.335868    0.460802    1.773819
     11          1           0       -0.401731    0.019423    1.287112
     12          1           0        0.348846    1.413318    1.358653
     13          8           0        0.328339    2.504708    0.552200
     14          1           0       -0.485149    3.038776    0.682371
     15          1           0        0.202213    2.050077   -0.376966
     16          8           0        0.076936    1.204114   -1.423496
     17          1           0        0.996629    0.828451   -1.554559
     18          1           0       -0.438113    0.435641   -1.064564
     19          8           0        2.394798    0.230678   -1.397071
     20          1           0        3.077883    0.936466   -1.353298
     21          1           0        2.411813   -0.164203   -0.471733
     22          8           0        0.613135   -2.447024   -0.029318
     23          1           0        1.338788   -1.856052    0.383278
     24          1           0        0.966636   -2.673649   -0.917224
     25          8           0        2.093382   -0.761823    0.872274
     26          1           0        1.326013   -0.160734    1.374344
     27          1           0        2.793745   -0.970209    1.524292
 ---------------------------------------------------------------------
 Rotational constants (GHZ):      1.1407267      0.8162888      0.6641246
 Leave Link  202 at Wed Dec  4 10:26:07 2019, MaxMem=  805306368 cpu:       0.0
 (Enter /home/programs/G09_64/g09/l120.exe)
 ONIOM: saving gridpoint 17
 ONIOM: generating point  3 -- low level on real system.
 Leave Link  120 at Wed Dec  4 10:26:07 2019, MaxMem=  805306368 cpu:       0.0
 (Enter /home/programs/G09_64/g09/l301.exe)
 Standard basis: STO-3G (5D, 7F)
 Ernie: Thresh=  0.10000D-02 Tol=  0.10000D-05 Strict=F.
 There are    63 symmetry adapted basis functions of A   symmetry.
 Integral buffers will be    131072 words long.
 Raffenetti 1 integral format.
 Two-electron integral symmetry is turned on.
    63 basis functions,   189 primitive gaussians,    63 cartesian basis functions
    43 alpha electrons       43 beta electrons
       nuclear repulsion energy       618.5592993429 Hartrees.
 IExCor=    0 DFT=F Ex=HF Corr=None ExCW=0 ScaHFX=  1.000000
 ScaDFX=  1.000000  1.000000  1.000000  1.000000 ScalE2=  1.000000  1.000000
 IRadAn=      0 IRanWt=     -1 IRanGd=            0 ICorTp=0
 NAtoms=   27 NActive=   27 NUniq=   27 SFac= 1.00D+00 NAtFMM=   50 NAOKFM=F Big=F
 Leave Link  301 at Wed Dec  4 10:26:07 2019, MaxMem=  805306368 cpu:       0.3
 (Enter /home/programs/G09_64/g09/l302.exe)
 NPDir=0 NMtPBC=     1 NCelOv=     1 NCel=       1 NClECP=     1 NCelD=      1
         NCelK=      1 NCelE2=     1 NClLst=     1 CellRange=     0.0.
 One-electron integrals computed using PRISM.
 NBasis=    63 RedAO= T  NBF=    63
 NBsUse=    63 1.00D-06 NBFU=    63
 Leave Link  302 at Wed Dec  4 10:26:08 2019, MaxMem=  805306368 cpu:       1.0
 (Enter /home/programs/G09_64/g09/l303.exe)
 DipDrv:  MaxL=1.
 Leave Link  303 at Wed Dec  4 10:26:08 2019, MaxMem=  805306368 cpu:       0.2
 (Enter /home/programs/G09_64/g09/l401.exe)
 Harris functional with IExCor=  205 diagonalized for initial guess.
 ExpMin= 1.69D-01 ExpMax= 1.31D+02 ExpMxC= 1.31D+02 IAcc=1 IRadAn=         1 AccDes= 0.00D+00
 HarFok:  IExCor=  205 AccDes= 0.00D+00 IRadAn=         1 IDoV= 1
 ScaDFX=  1.000000  1.000000  1.000000  1.000000
 FoFCou: FMM=F IPFlag=           0 FMFlag=      100000 FMFlg1=           0
         NFxFlg=           0 DoJE=T BraDBF=F KetDBF=T FulRan=T
         Omega=  0.000000  0.000000  1.000000  0.000000  0.000000 ICntrl=     500 IOpCl=  0
         NMat0=    1 NMatS0=    1 NMatT0=    0 NMatD0=    1 NMtDS0=    0 NMtDT0=    0
         I1Cent=           4 NGrid=           0.
 Petite list used in FoFCou.
 Harris En= -602.761062481528    
 Initial guess orbital symmetries:
       Occupied  (A) (A) (A) (A) (A) (A) (A) (A) (A) (A) (A) (A)
                 (A) (A) (A) (A) (A) (A) (A) (A) (A) (A) (A) (A)
                 (A) (A) (A) (A) (A) (A) (A) (A) (A) (A) (A) (A)
                 (A) (A) (A) (A) (A) (A) (A)
       Virtual   (A) (A) (A) (A) (A) (A) (A) (A) (A) (A) (A) (A)
                 (A) (A) (A) (A) (A) (A) (A) (A)
 The electronic state of the initial guess is 1-A.
 Leave Link  401 at Wed Dec  4 10:26:08 2019, MaxMem=  805306368 cpu:       1.9
 (Enter /home/programs/G09_64/g09/l502.exe)
 Closed shell SCF:
 Requested convergence on RMS density matrix=1.00D-08 within 128 cycles.
 Requested convergence on MAX density matrix=1.00D-06.
 Requested convergence on             energy=1.00D-06.
 No special actions if energy rises.
 Using DIIS extrapolation, IDIIS=  1040.
 Integral symmetry usage will be decided dynamically.
 Keep R1 ints in memory in canonical form, NReq=2864238.
 IEnd=       31088 IEndB=       31088 NGot=   805306368 MDV=   803262789
 LenX=   803262789 LenY=   803258379
 Symmetry not used in FoFDir.
 MinBra= 0 MaxBra= 1 Meth= 1.
 IRaf=       0 NMat=   1 IRICut=       1 DoRegI=T DoRafI=F ISym2E= 0 JSym2E=0.

 Cycle   1  Pass 1  IDiag  1:
 E= -601.808356184229    
 DIIS: error= 3.90D-02 at cycle   1 NSaved=   1.
 NSaved= 1 IEnMin= 1 EnMin= -601.808356184229     IErMin= 1 ErrMin= 3.90D-02
 ErrMax= 3.90D-02 EMaxC= 1.00D-01 BMatC= 1.73D-01 BMatP= 1.73D-01
 IDIUse=3 WtCom= 6.10D-01 WtEn= 3.90D-01
 Coeff-Com:  0.100D+01
 Coeff-En:   0.100D+01
 Coeff:      0.100D+01
 Gap=     0.793 Goal=   None    Shift=    0.000
 GapD=    0.793 DampG=2.000 DampE=0.500 DampFc=1.0000 IDamp=-1.
 RMSDP=8.93D-03 MaxDP=1.12D-01              OVMax= 0.00D+00

 Cycle   2  Pass 1  IDiag  1:
 E= -602.011945145868     Delta-E=       -0.203588961640 Rises=F Damp=F
 DIIS: error= 7.52D-03 at cycle   2 NSaved=   2.
 NSaved= 2 IEnMin= 2 EnMin= -602.011945145868     IErMin= 2 ErrMin= 7.52D-03
 ErrMax= 7.52D-03 EMaxC= 1.00D-01 BMatC= 4.51D-03 BMatP= 1.73D-01
 IDIUse=3 WtCom= 9.25D-01 WtEn= 7.52D-02
 Coeff-Com:  0.178D-01 0.982D+00
 Coeff-En:   0.000D+00 0.100D+01
 Coeff:      0.164D-01 0.984D+00
 Gap=     0.810 Goal=   None    Shift=    0.000
 RMSDP=1.72D-03 MaxDP=2.31D-02 DE=-2.04D-01 OVMax= 0.00D+00

 Cycle   3  Pass 1  IDiag  1:
 E= -602.018766145845     Delta-E=       -0.006820999977 Rises=F Damp=F
 DIIS: error= 1.40D-03 at cycle   3 NSaved=   3.
 NSaved= 3 IEnMin= 3 EnMin= -602.018766145845     IErMin= 3 ErrMin= 1.40D-03
 ErrMax= 1.40D-03 EMaxC= 1.00D-01 BMatC= 3.33D-04 BMatP= 4.51D-03
 IDIUse=3 WtCom= 9.86D-01 WtEn= 1.40D-02
 Coeff-Com: -0.198D-01-0.323D-01 0.105D+01
 Coeff-En:   0.000D+00 0.000D+00 0.100D+01
 Coeff:     -0.195D-01-0.319D-01 0.105D+01
 Gap=     0.811 Goal=   None    Shift=    0.000
 RMSDP=6.00D-04 MaxDP=4.63D-03 DE=-6.82D-03 OVMax= 0.00D+00

 Cycle   4  Pass 1  IDiag  1:
 E= -602.019476188713     Delta-E=       -0.000710042868 Rises=F Damp=F
 DIIS: error= 7.58D-04 at cycle   4 NSaved=   4.
 NSaved= 4 IEnMin= 4 EnMin= -602.019476188713     IErMin= 4 ErrMin= 7.58D-04
 ErrMax= 7.58D-04 EMaxC= 1.00D-01 BMatC= 3.15D-05 BMatP= 3.33D-04
 IDIUse=3 WtCom= 9.92D-01 WtEn= 7.58D-03
 Coeff-Com:  0.323D-03-0.569D-01-0.739D-01 0.113D+01
 Coeff-En:   0.000D+00 0.000D+00 0.000D+00 0.100D+01
 Coeff:      0.321D-03-0.564D-01-0.733D-01 0.113D+01
 Gap=     0.808 Goal=   None    Shift=    0.000
 RMSDP=2.30D-04 MaxDP=2.36D-03 DE=-7.10D-04 OVMax= 0.00D+00

 Cycle   5  Pass 1  IDiag  1:
 E= -602.019553665245     Delta-E=       -0.000077476531 Rises=F Damp=F
 DIIS: error= 1.77D-04 at cycle   5 NSaved=   5.
 NSaved= 5 IEnMin= 5 EnMin= -602.019553665245     IErMin= 5 ErrMin= 1.77D-04
 ErrMax= 1.77D-04 EMaxC= 1.00D-01 BMatC= 2.12D-06 BMatP= 3.15D-05
 IDIUse=3 WtCom= 9.98D-01 WtEn= 1.77D-03
 Coeff-Com:  0.929D-03 0.505D-02-0.565D-01-0.550D-01 0.111D+01
 Coeff-En:   0.000D+00 0.000D+00 0.000D+00 0.000D+00 0.100D+01
 Coeff:      0.927D-03 0.504D-02-0.564D-01-0.549D-01 0.111D+01
 Gap=     0.809 Goal=   None    Shift=    0.000
 RMSDP=6.12D-05 MaxDP=5.42D-04 DE=-7.75D-05 OVMax= 0.00D+00

 Cycle   6  Pass 1  IDiag  1:
 E= -602.019558963385     Delta-E=       -0.000005298140 Rises=F Damp=F
 DIIS: error= 6.01D-05 at cycle   6 NSaved=   6.
 NSaved= 6 IEnMin= 6 EnMin= -602.019558963385     IErMin= 6 ErrMin= 6.01D-05
 ErrMax= 6.01D-05 EMaxC= 1.00D-01 BMatC= 1.49D-07 BMatP= 2.12D-06
 IDIUse=1 WtCom= 1.00D+00 WtEn= 0.00D+00
 Coeff-Com: -0.585D-04 0.465D-02 0.745D-02-0.921D-01-0.344D-01 0.111D+01
 Coeff:     -0.585D-04 0.465D-02 0.745D-02-0.921D-01-0.344D-01 0.111D+01
 Gap=     0.809 Goal=   None    Shift=    0.000
 RMSDP=1.74D-05 MaxDP=2.15D-04 DE=-5.30D-06 OVMax= 0.00D+00

 Cycle   7  Pass 1  IDiag  1:
 E= -602.019559325930     Delta-E=       -0.000000362545 Rises=F Damp=F
 DIIS: error= 5.95D-06 at cycle   7 NSaved=   7.
 NSaved= 7 IEnMin= 7 EnMin= -602.019559325930     IErMin= 7 ErrMin= 5.95D-06
 ErrMax= 5.95D-06 EMaxC= 1.00D-01 BMatC= 4.48D-09 BMatP= 1.49D-07
 IDIUse=1 WtCom= 1.00D+00 WtEn= 0.00D+00
 Coeff-Com: -0.289D-04-0.317D-03 0.208D-02 0.500D-02-0.458D-01-0.296D-01
 Coeff-Com:  0.107D+01
 Coeff:     -0.289D-04-0.317D-03 0.208D-02 0.500D-02-0.458D-01-0.296D-01
 Coeff:      0.107D+01
 Gap=     0.809 Goal=   None    Shift=    0.000
 RMSDP=2.60D-06 MaxDP=2.65D-05 DE=-3.63D-07 OVMax= 0.00D+00

 Cycle   8  Pass 1  IDiag  1:
 E= -602.019559336226     Delta-E=       -0.000000010295 Rises=F Damp=F
 DIIS: error= 1.52D-06 at cycle   8 NSaved=   8.
 NSaved= 8 IEnMin= 8 EnMin= -602.019559336226     IErMin= 8 ErrMin= 1.52D-06
 ErrMax= 1.52D-06 EMaxC= 1.00D-01 BMatC= 2.61D-10 BMatP= 4.48D-09
 IDIUse=1 WtCom= 1.00D+00 WtEn= 0.00D+00
 Coeff-Com:  0.817D-05-0.195D-03-0.668D-03 0.408D-02 0.721D-02-0.499D-01
 Coeff-Com: -0.128D+00 0.117D+01
 Coeff:      0.817D-05-0.195D-03-0.668D-03 0.408D-02 0.721D-02-0.499D-01
 Coeff:     -0.128D+00 0.117D+01
 Gap=     0.809 Goal=   None    Shift=    0.000
 RMSDP=6.52D-07 MaxDP=7.25D-06 DE=-1.03D-08 OVMax= 0.00D+00

 Cycle   9  Pass 1  IDiag  1:
 E= -602.019559336867     Delta-E=       -0.000000000641 Rises=F Damp=F
 DIIS: error= 3.86D-07 at cycle   9 NSaved=   9.
 NSaved= 9 IEnMin= 9 EnMin= -602.019559336867     IErMin= 9 ErrMin= 3.86D-07
 ErrMax= 3.86D-07 EMaxC= 1.00D-01 BMatC= 1.10D-11 BMatP= 2.61D-10
 IDIUse=1 WtCom= 1.00D+00 WtEn= 0.00D+00
 Coeff-Com:  0.211D-05 0.112D-04-0.150D-03-0.128D-03 0.287D-02-0.717D-04
 Coeff-Com: -0.634D-01 0.208D-01 0.104D+01
 Coeff:      0.211D-05 0.112D-04-0.150D-03-0.128D-03 0.287D-02-0.717D-04
 Coeff:     -0.634D-01 0.208D-01 0.104D+01
 Gap=     0.809 Goal=   None    Shift=    0.000
 RMSDP=1.37D-07 MaxDP=1.35D-06 DE=-6.41D-10 OVMax= 0.00D+00

 Cycle  10  Pass 1  IDiag  1:
 E= -602.019559336892     Delta-E=       -0.000000000025 Rises=F Damp=F
 DIIS: error= 5.37D-08 at cycle  10 NSaved=  10.
 NSaved=10 IEnMin=10 EnMin= -602.019559336892     IErMin=10 ErrMin= 5.37D-08
 ErrMax= 5.37D-08 EMaxC= 1.00D-01 BMatC= 4.25D-13 BMatP= 1.10D-11
 IDIUse=1 WtCom= 1.00D+00 WtEn= 0.00D+00
 Coeff-Com: -0.837D-06 0.281D-05 0.656D-04-0.952D-04-0.106D-02 0.152D-02
 Coeff-Com:  0.228D-01-0.451D-01-0.287D+00 0.131D+01
 Coeff:     -0.837D-06 0.281D-05 0.656D-04-0.952D-04-0.106D-02 0.152D-02
 Coeff:      0.228D-01-0.451D-01-0.287D+00 0.131D+01
 Gap=     0.809 Goal=   None    Shift=    0.000
 RMSDP=2.85D-08 MaxDP=2.32D-07 DE=-2.55D-11 OVMax= 0.00D+00

 Cycle  11  Pass 1  IDiag  1:
 E= -602.019559336891     Delta-E=        0.000000000001 Rises=F Damp=F
 DIIS: error= 1.25D-08 at cycle  11 NSaved=  11.
 NSaved=11 IEnMin=10 EnMin= -602.019559336892     IErMin=11 ErrMin= 1.25D-08
 ErrMax= 1.25D-08 EMaxC= 1.00D-01 BMatC= 1.11D-14 BMatP= 4.25D-13
 IDIUse=1 WtCom= 1.00D+00 WtEn= 0.00D+00
 Coeff-Com:  0.532D-07-0.603D-06-0.483D-05 0.144D-04 0.753D-04-0.195D-03
 Coeff-Com: -0.165D-02 0.566D-02 0.139D-01-0.186D+00 0.117D+01
 Coeff:      0.532D-07-0.603D-06-0.483D-05 0.144D-04 0.753D-04-0.195D-03
 Coeff:     -0.165D-02 0.566D-02 0.139D-01-0.186D+00 0.117D+01
 Gap=     0.809 Goal=   None    Shift=    0.000
 RMSDP=4.31D-09 MaxDP=4.10D-08 DE= 1.36D-12 OVMax= 0.00D+00

 SCF Done:  E(RHF) =  -602.019559337     A.U. after   11 cycles
             Convg  =    0.4312D-08             -V/T =  2.0050
 KE= 5.990322806267D+02 PE=-2.667653112733D+03 EE= 8.480419734267D+02
 Leave Link  502 at Wed Dec  4 10:26:08 2019, MaxMem=  805306368 cpu:       1.7
 (Enter /home/programs/G09_64/g09/l601.exe)
 Copying SCF densities to generalized density rwf, IOpCl= 0 IROHF=0.

 **********************************************************************

            Population analysis using the SCF density.

 **********************************************************************

 Orbital symmetries:
       Occupied  (A) (A) (A) (A) (A) (A) (A) (A) (A) (A) (A) (A)
                 (A) (A) (A) (A) (A) (A) (A) (A) (A) (A) (A) (A)
                 (A) (A) (A) (A) (A) (A) (A) (A) (A) (A) (A) (A)
                 (A) (A) (A) (A) (A) (A) (A)
       Virtual   (A) (A) (A) (A) (A) (A) (A) (A) (A) (A) (A) (A)
                 (A) (A) (A) (A) (A) (A) (A) (A)
 The electronic state is 1-A.
 Alpha  occ. eigenvalues --  -20.23261 -20.22029 -20.21368 -20.21096 -20.20357
 Alpha  occ. eigenvalues --  -20.20065 -20.19820 -11.09389 -11.04206  -1.30947
 Alpha  occ. eigenvalues --   -1.28098  -1.27149  -1.26597  -1.24662  -1.22114
 Alpha  occ. eigenvalues --   -1.20945  -0.96670  -0.78286  -0.66282  -0.65222
 Alpha  occ. eigenvalues --   -0.64636  -0.63277  -0.62678  -0.62418  -0.61424
 Alpha  occ. eigenvalues --   -0.57449  -0.53579  -0.52308  -0.50893  -0.49306
 Alpha  occ. eigenvalues --   -0.47944  -0.46412  -0.44771  -0.44128  -0.41873
 Alpha  occ. eigenvalues --   -0.39753  -0.35953  -0.35343  -0.34843  -0.33623
 Alpha  occ. eigenvalues --   -0.32983  -0.31918  -0.30771
 Alpha virt. eigenvalues --    0.50139   0.54554   0.59880   0.61538   0.63502
 Alpha virt. eigenvalues --    0.64310   0.67510   0.68729   0.70795   0.72331
 Alpha virt. eigenvalues --    0.75959   0.76225   0.78172   0.79954   0.80752
 Alpha virt. eigenvalues --    0.81830   0.82962   0.84357   0.86421   0.88565
          Condensed to atoms (all electrons):
              1          2          3          4          5          6
     1  O    7.949093   0.283023  -0.019412   0.228077   0.000583  -0.000646
     2  C    0.283023   4.689736   0.362904  -0.025860  -0.019224  -0.021734
     3  C   -0.019412   0.362904   4.740265   0.001557   0.385733   0.385979
     4  H    0.228077  -0.025860   0.001557   0.468462  -0.000043   0.000014
     5  H    0.000583  -0.019224   0.385733  -0.000043   0.609496  -0.020459
     6  H   -0.000646  -0.021734   0.385979   0.000014  -0.020459   0.611434
     7  H   -0.000497  -0.021824   0.381848   0.000006  -0.021007  -0.022150
     8  H   -0.016565   0.375483  -0.023856  -0.002253  -0.001865   0.001863
     9  H   -0.015270   0.318688  -0.021307  -0.000668  -0.001940  -0.003009
    10  O   -0.005908   0.000114  -0.000002   0.000166   0.000000  -0.000001
    11  H    0.020698  -0.001762  -0.000319  -0.003412   0.000001  -0.000004
    12  H    0.000392  -0.000011   0.000002   0.000008   0.000000   0.000001
    13  O   -0.000013   0.000001  -0.000003   0.000001   0.000000  -0.000004
    14  H    0.000005  -0.000001  -0.000003   0.000000   0.000000   0.000008
    15  H    0.000168  -0.000005   0.000001  -0.000003   0.000000   0.000013
    16  O   -0.007745   0.000184  -0.000034   0.000316   0.000001  -0.000095
    17  H    0.000524  -0.000005   0.000005  -0.000036   0.000000   0.000003
    18  H    0.028344  -0.003146  -0.000561  -0.003175   0.000003  -0.000030
    19  O   -0.000003   0.000000   0.000000   0.000005   0.000000   0.000000
    20  H    0.000000   0.000000   0.000000  -0.000001   0.000000   0.000000
    21  H    0.000003   0.000000   0.000000   0.000013   0.000000   0.000000
    22  O   -0.023198   0.000576  -0.000003   0.073627   0.000000   0.000000
    23  H    0.000659   0.000002   0.000000  -0.009087   0.000000   0.000000
    24  H    0.001060  -0.000040   0.000001  -0.008584   0.000000   0.000000
    25  O   -0.000040   0.000001   0.000000   0.000255   0.000000   0.000000
    26  H    0.000248  -0.000002   0.000000  -0.000052   0.000000   0.000000
    27  H    0.000003   0.000000   0.000000   0.000000   0.000000   0.000000
              7          8          9         10         11         12
     1  O   -0.000497  -0.016565  -0.015270  -0.005908   0.020698   0.000392
     2  C   -0.021824   0.375483   0.318688   0.000114  -0.001762  -0.000011
     3  C    0.381848  -0.023856  -0.021307  -0.000002  -0.000319   0.000002
     4  H    0.000006  -0.002253  -0.000668   0.000166  -0.003412   0.000008
     5  H   -0.021007  -0.001865  -0.001940   0.000000   0.000001   0.000000
     6  H   -0.022150   0.001863  -0.003009  -0.000001  -0.000004   0.000001
     7  H    0.624856  -0.001748   0.001637  -0.000037   0.000089   0.000014
     8  H   -0.001748   0.643218  -0.023690   0.000002  -0.000059   0.000000
     9  H    0.001637  -0.023690   0.760974  -0.000002   0.000096   0.000001
    10  O   -0.000037   0.000002  -0.000002   7.920099   0.253963   0.221557
    11  H    0.000089  -0.000059   0.000096   0.253963   0.559297  -0.030631
    12  H    0.000014   0.000000   0.000001   0.221557  -0.030631   0.480531
    13  O   -0.000003   0.000000   0.000000  -0.025289   0.001387   0.079168
    14  H    0.000007   0.000000   0.000000   0.001169  -0.000094  -0.009235
    15  H    0.000002   0.000000   0.000000   0.000672  -0.000056  -0.008953
    16  O   -0.000001  -0.000006   0.000017  -0.000063  -0.000058   0.000355
    17  H    0.000000   0.000001  -0.000001   0.000014   0.000024   0.000009
    18  H   -0.000001   0.000201  -0.000250  -0.000082  -0.000590   0.000011
    19  O    0.000000   0.000000   0.000000  -0.000006   0.000002   0.000007
    20  H    0.000000   0.000000   0.000000   0.000002   0.000000  -0.000001
    21  H    0.000000   0.000000   0.000000   0.000183  -0.000001  -0.000022
    22  O    0.000000   0.000073   0.000014  -0.000027   0.000044   0.000003
    23  H    0.000000  -0.000001   0.000000   0.000204  -0.000083   0.000008
    24  H    0.000000  -0.000006   0.000001   0.000003   0.000004   0.000000
    25  O    0.000000   0.000000   0.000000  -0.033609   0.001244   0.000959
    26  H    0.000000   0.000000   0.000000   0.121547  -0.016254  -0.010515
    27  H    0.000000   0.000000   0.000000   0.001519   0.000007  -0.000035
             13         14         15         16         17         18
     1  O   -0.000013   0.000005   0.000168  -0.007745   0.000524   0.028344
     2  C    0.000001  -0.000001  -0.000005   0.000184  -0.000005  -0.003146
     3  C   -0.000003  -0.000003   0.000001  -0.000034   0.000005  -0.000561
     4  H    0.000001   0.000000  -0.000003   0.000316  -0.000036  -0.003175
     5  H    0.000000   0.000000   0.000000   0.000001   0.000000   0.000003
     6  H   -0.000004   0.000008   0.000013  -0.000095   0.000003  -0.000030
     7  H   -0.000003   0.000007   0.000002  -0.000001   0.000000  -0.000001
     8  H    0.000000   0.000000   0.000000  -0.000006   0.000001   0.000201
     9  H    0.000000   0.000000   0.000000   0.000017  -0.000001  -0.000250
    10  O   -0.025289   0.001169   0.000672  -0.000063   0.000014  -0.000082
    11  H    0.001387  -0.000094  -0.000056  -0.000058   0.000024  -0.000590
    12  H    0.079168  -0.009235  -0.008953   0.000355   0.000009   0.000011
    13  O    7.930658   0.255934   0.218851  -0.025832   0.000827   0.001006
    14  H    0.255934   0.624582  -0.031592   0.001338   0.000006  -0.000054
    15  H    0.218851  -0.031592   0.486862   0.081073  -0.009535  -0.010224
    16  O   -0.025832   0.001338   0.081073   7.919542   0.246838   0.252261
    17  H    0.000827   0.000006  -0.009535   0.246838   0.518031  -0.034621
    18  H    0.001006  -0.000054  -0.010224   0.252261  -0.034621   0.546166
    19  O   -0.000008   0.000001   0.000231  -0.013353   0.042124   0.000831
    20  H    0.000005   0.000000  -0.000021   0.000653  -0.005265  -0.000007
    21  H    0.000005   0.000000  -0.000002   0.000569  -0.005307  -0.000066
    22  O    0.000000   0.000000   0.000000  -0.000002   0.000006   0.000091
    23  H    0.000000   0.000000   0.000000   0.000000   0.000009   0.000003
    24  H    0.000000   0.000000   0.000000   0.000002   0.000001  -0.000006
    25  O   -0.000007   0.000001   0.000002  -0.000008   0.000111   0.000003
    26  H    0.000410  -0.000003  -0.000003   0.000013  -0.000003   0.000023
    27  H    0.000001   0.000000   0.000000   0.000001  -0.000002   0.000000
             19         20         21         22         23         24
     1  O   -0.000003   0.000000   0.000003  -0.023198   0.000659   0.001060
     2  C    0.000000   0.000000   0.000000   0.000576   0.000002  -0.000040
     3  C    0.000000   0.000000   0.000000  -0.000003   0.000000   0.000001
     4  H    0.000005  -0.000001   0.000013   0.073627  -0.009087  -0.008584
     5  H    0.000000   0.000000   0.000000   0.000000   0.000000   0.000000
     6  H    0.000000   0.000000   0.000000   0.000000   0.000000   0.000000
     7  H    0.000000   0.000000   0.000000   0.000000   0.000000   0.000000
     8  H    0.000000   0.000000   0.000000   0.000073  -0.000001  -0.000006
     9  H    0.000000   0.000000   0.000000   0.000014   0.000000   0.000001
    10  O   -0.000006   0.000002   0.000183  -0.000027   0.000204   0.000003
    11  H    0.000002   0.000000  -0.000001   0.000044  -0.000083   0.000004
    12  H    0.000007  -0.000001  -0.000022   0.000003   0.000008   0.000000
    13  O   -0.000008   0.000005   0.000005   0.000000   0.000000   0.000000
    14  H    0.000001   0.000000   0.000000   0.000000   0.000000   0.000000
    15  H    0.000231  -0.000021  -0.000002   0.000000   0.000000   0.000000
    16  O   -0.013353   0.000653   0.000569  -0.000002   0.000000   0.000002
    17  H    0.042124  -0.005265  -0.005307   0.000006   0.000009   0.000001
    18  H    0.000831  -0.000007  -0.000066   0.000091   0.000003  -0.000006
    19  O    7.899574   0.256902   0.243863  -0.000012  -0.000061   0.000014
    20  H    0.256902   0.621866  -0.037628   0.000002   0.000007  -0.000001
    21  H    0.243863  -0.037628   0.517120  -0.000051  -0.001739   0.000012
    22  O   -0.000012   0.000002  -0.000051   7.897689   0.232751   0.257896
    23  H   -0.000061   0.000007  -0.001739   0.232751   0.493450  -0.034286
    24  H    0.000014  -0.000001   0.000012   0.257896  -0.034286   0.611590
    25  O   -0.014155   0.000869   0.044205  -0.020576   0.062604   0.001153
    26  H    0.000363  -0.000018  -0.003378   0.000352  -0.005674   0.000013
    27  H    0.000668  -0.000090  -0.004151   0.000874  -0.006377  -0.000055
             25         26         27
     1  O   -0.000040   0.000248   0.000003
     2  C    0.000001  -0.000002   0.000000
     3  C    0.000000   0.000000   0.000000
     4  H    0.000255  -0.000052   0.000000
     5  H    0.000000   0.000000   0.000000
     6  H    0.000000   0.000000   0.000000
     7  H    0.000000   0.000000   0.000000
     8  H    0.000000   0.000000   0.000000
     9  H    0.000000   0.000000   0.000000
    10  O   -0.033609   0.121547   0.001519
    11  H    0.001244  -0.016254   0.000007
    12  H    0.000959  -0.010515  -0.000035
    13  O   -0.000007   0.000410   0.000001
    14  H    0.000001  -0.000003   0.000000
    15  H    0.000002  -0.000003   0.000000
    16  O   -0.000008   0.000013   0.000001
    17  H    0.000111  -0.000003  -0.000002
    18  H    0.000003   0.000023   0.000000
    19  O   -0.014155   0.000363   0.000668
    20  H    0.000869  -0.000018  -0.000090
    21  H    0.044205  -0.003378  -0.004151
    22  O   -0.020576   0.000352   0.000874
    23  H    0.062604  -0.005674  -0.006377
    24  H    0.001153   0.000013  -0.000055
    25  O    7.981308   0.185497   0.256346
    26  H    0.185497   0.462623  -0.024116
    27  H    0.256346  -0.024116   0.610606
 Mulliken atomic charges:
              1
     1  O   -0.423583
     2  C    0.062900
     3  C   -0.192796
     4  H    0.280667
     5  H    0.068720
     6  H    0.068816
     7  H    0.058808
     8  H    0.049208
     9  H   -0.015291
    10  O   -0.456186
    11  H    0.216467
    12  H    0.276381
    13  O   -0.437095
    14  H    0.157932
    15  H    0.272519
    16  O   -0.455966
    17  H    0.246246
    18  H    0.223870
    19  O   -0.416987
    20  H    0.162725
    21  H    0.246372
    22  O   -0.420131
    23  H    0.267609
    24  H    0.171229
    25  O   -0.466162
    26  H    0.288925
    27  H    0.164802
 Sum of Mulliken atomic charges =   0.00000
 Mulliken charges with hydrogens summed into heavy atoms:
              1
     1  O   -0.142916
     2  C    0.096817
     3  C    0.003549
    10  O    0.036661
    13  O   -0.006644
    16  O    0.014149
    19  O   -0.007889
    22  O    0.018708
    25  O   -0.012435
 Sum of Mulliken charges with hydrogens summed into heavy atoms =   0.00000
 Electronic spatial extent (au):  <R**2>=           1987.8051
 Charge=              0.0000 electrons
 Dipole moment (field-independent basis, Debye):
    X=              0.7887    Y=             -0.5811    Z=              0.6191  Tot=              1.1589
 Quadrupole moment (field-independent basis, Debye-Ang):
   XX=            -43.4473   YY=            -54.2362   ZZ=            -57.7925
   XY=             -2.9200   XZ=              0.9684   YZ=              1.4521
 Traceless Quadrupole moment (field-independent basis, Debye-Ang):
   XX=              8.3780   YY=             -2.4108   ZZ=             -5.9672
   XY=             -2.9200   XZ=              0.9684   YZ=              1.4521
 Octapole moment (field-independent basis, Debye-Ang**2):
  XXX=             51.6325  YYY=              8.4923  ZZZ=              4.1441  XYY=              7.8406
  XXY=              1.4617  XXZ=              9.8375  XZZ=             12.1509  YZZ=             -7.1421
  YYZ=             -4.1360  XYZ=             -6.1869
 Hexadecapole moment (field-independent basis, Debye-Ang**3):
 XXXX=          -1057.6923 YYYY=           -638.3534 ZZZZ=           -360.3132 XXXY=              7.9426
 XXXZ=             14.7877 YYYX=            -41.6474 YYYZ=             18.5021 ZZZX=              9.3587
 ZZZY=             -0.6099 XXYY=           -278.9728 XXZZ=           -241.1130 YYZZ=           -151.7078
 XXYZ=            -20.3482 YYXZ=            -18.1175 ZZXY=             -6.1879
 N-N= 6.185592993429D+02 E-N=-2.667653112971D+03  KE= 5.990322806267D+02
 No NMR shielding tensors so no spin-rotation constants.
 Leave Link  601 at Wed Dec  4 10:26:08 2019, MaxMem=  805306368 cpu:       0.9
 (Enter /home/programs/G09_64/g09/l701.exe)
 Compute integral first derivatives.
 ... and contract with generalized density number  0.
 Leave Link  701 at Wed Dec  4 10:26:08 2019, MaxMem=  805306368 cpu:       0.9
 (Enter /home/programs/G09_64/g09/l702.exe)
 L702 exits ... SP integral derivatives will be done elsewhere.
 Leave Link  702 at Wed Dec  4 10:26:08 2019, MaxMem=  805306368 cpu:       0.2
 (Enter /home/programs/G09_64/g09/l703.exe)
 Compute integral first derivatives, UseDBF=F ICtDFT=           0.
 Integral derivatives from FoFDir, PRISM(SPDF).
 Calling FoFJK, ICntrl=      2127 FMM=F ISym2X=0 I1Cent= 0 IOpClX= 0 NMat=1 NMatS=1 NMatT=0.
 FoFCou: FMM=F IPFlag=           0 FMFlag=      100000 FMFlg1=         800
         NFxFlg=           0 DoJE=F BraDBF=F KetDBF=F FulRan=T
         Omega=  0.000000  0.000000  1.000000  0.000000  0.000000 ICntrl=    2127 IOpCl=  0
         NMat0=    1 NMatS0=    1 NMatT0=    0 NMatD0=    1 NMtDS0=    0 NMtDT0=    0
         I1Cent=           0 NGrid=           0.
 Symmetry not used in FoFCou.
 Leave Link  703 at Wed Dec  4 10:26:09 2019, MaxMem=  805306368 cpu:       1.4
 (Enter /home/programs/G09_64/g09/l716.exe)
 Dipole        = 3.10311885D-01-2.28618656D-01 2.43582909D-01
 ***** Axes restored to original set *****
 Cartesian Forces:  Max     0.136122837 RMS     0.022407140
 Leave Link  716 at Wed Dec  4 10:26:09 2019, MaxMem=  805306368 cpu:       0.2
 (Enter /home/programs/G09_64/g09/l120.exe)
 SvSCFP is copying densities from files   528 and   530 to   603.
 ONIOM: saving gridpoint  3
 ONIOM: restoring gridpoint 17
 ONIOM: generating point  2 -- high level on model system.
 Leave Link  120 at Wed Dec  4 10:26:09 2019, MaxMem=  805306368 cpu:       0.2
 (Enter /home/programs/G09_64/g09/l301.exe)
 Standard basis: 3-21G (6D, 7F)
 Ernie: Thresh=  0.10000D-02 Tol=  0.10000D-05 Strict=F.
 There are    39 symmetry adapted basis functions of A   symmetry.
 Integral buffers will be    131072 words long.
 Raffenetti 1 integral format.
 Two-electron integral symmetry is turned on.
    39 basis functions,    63 primitive gaussians,    39 cartesian basis functions
    13 alpha electrons       13 beta electrons
       nuclear repulsion energy        80.7758873802 Hartrees.
 IExCor=    0 DFT=F Ex=HF Corr=None ExCW=0 ScaHFX=  1.000000
 ScaDFX=  1.000000  1.000000  1.000000  1.000000 ScalE2=  1.000000  1.000000
 IRadAn=      0 IRanWt=     -1 IRanGd=            0 ICorTp=0
 NAtoms=   27 NActive=    9 NUniq=    9 SFac= 1.00D+00 NAtFMM=   50 NAOKFM=F Big=F
 Leave Link  301 at Wed Dec  4 10:26:09 2019, MaxMem=  805306368 cpu:       0.3
 (Enter /home/programs/G09_64/g09/l302.exe)
 NPDir=0 NMtPBC=     1 NCelOv=     1 NCel=       1 NClECP=     1 NCelD=      1
         NCelK=      1 NCelE2=     1 NClLst=     1 CellRange=     0.0.
 One-electron integrals computed using PRISM.
 NBasis=    39 RedAO= T  NBF=    39
 NBsUse=    39 1.00D-06 NBFU=    39
 Leave Link  302 at Wed Dec  4 10:26:09 2019, MaxMem=  805306368 cpu:       0.8
 (Enter /home/programs/G09_64/g09/l303.exe)
 DipDrv:  MaxL=1.
 Leave Link  303 at Wed Dec  4 10:26:09 2019, MaxMem=  805306368 cpu:       0.2
 (Enter /home/programs/G09_64/g09/l401.exe)
 Harris functional with IExCor=  205 diagonalized for initial guess.
 ExpMin= 1.83D-01 ExpMax= 3.22D+02 ExpMxC= 3.22D+02 IAcc=1 IRadAn=         1 AccDes= 0.00D+00
 HarFok:  IExCor=  205 AccDes= 0.00D+00 IRadAn=         1 IDoV= 1
 ScaDFX=  1.000000  1.000000  1.000000  1.000000
 FoFCou: FMM=F IPFlag=           0 FMFlag=      100000 FMFlg1=           0
         NFxFlg=           0 DoJE=T BraDBF=F KetDBF=T FulRan=T
         Omega=  0.000000  0.000000  1.000000  0.000000  0.000000 ICntrl=     500 IOpCl=  0
         NMat0=    1 NMatS0=    1 NMatT0=    0 NMatD0=    1 NMtDS0=    0 NMtDT0=    0
         I1Cent=           4 NGrid=           0.
 Petite list used in FoFCou.
 Harris En= -153.463473159551    
 Initial guess orbital symmetries:
       Occupied  (A) (A) (A) (A) (A) (A) (A) (A) (A) (A) (A) (A)
                 (A)
       Virtual   (A) (A) (A) (A) (A) (A) (A) (A) (A) (A) (A) (A)
                 (A) (A) (A) (A) (A) (A) (A) (A) (A) (A) (A) (A)
                 (A) (A)
 The electronic state of the initial guess is 1-A.
 Leave Link  401 at Wed Dec  4 10:26:09 2019, MaxMem=  805306368 cpu:       1.0
 (Enter /home/programs/G09_64/g09/l502.exe)
 Closed shell SCF:
 Requested convergence on RMS density matrix=1.00D-08 within 128 cycles.
 Requested convergence on MAX density matrix=1.00D-06.
 Requested convergence on             energy=1.00D-06.
 No special actions if energy rises.
 Using DIIS extrapolation, IDIIS=  1040.
 Integral symmetry usage will be decided dynamically.
 Keep R1 ints in memory in canonical form, NReq=1127973.
 IEnd=       23369 IEndB=       23369 NGot=   805306368 MDV=   804996582
 LenX=   804996582 LenY=   804994620
 Symmetry not used in FoFDir.
 MinBra= 0 MaxBra= 1 Meth= 1.
 IRaf=       0 NMat=   1 IRICut=       1 DoRegI=T DoRafI=F ISym2E= 0 JSym2E=0.

 Cycle   1  Pass 1  IDiag  1:
 E= -153.054472517905    
 DIIS: error= 4.69D-02 at cycle   1 NSaved=   1.
 NSaved= 1 IEnMin= 1 EnMin= -153.054472517905     IErMin= 1 ErrMin= 4.69D-02
 ErrMax= 4.69D-02 EMaxC= 1.00D-01 BMatC= 1.81D-01 BMatP= 1.81D-01
 IDIUse=3 WtCom= 5.31D-01 WtEn= 4.69D-01
 Coeff-Com:  0.100D+01
 Coeff-En:   0.100D+01
 Coeff:      0.100D+01
 Gap=     0.598 Goal=   None    Shift=    0.000
 GapD=    0.598 DampG=2.000 DampE=0.500 DampFc=1.0000 IDamp=-1.
 RMSDP=1.08D-02 MaxDP=1.01D-01              OVMax= 1.04D-01

 Cycle   2  Pass 1  IDiag  1:
 E= -153.167968343694     Delta-E=       -0.113495825789 Rises=F Damp=F
 DIIS: error= 1.94D-02 at cycle   2 NSaved=   2.
 NSaved= 2 IEnMin= 2 EnMin= -153.167968343694     IErMin= 2 ErrMin= 1.94D-02
 ErrMax= 1.94D-02 EMaxC= 1.00D-01 BMatC= 2.94D-02 BMatP= 1.81D-01
 IDIUse=3 WtCom= 8.06D-01 WtEn= 1.94D-01
 Coeff-Com:  0.250D+00 0.750D+00
 Coeff-En:   0.000D+00 0.100D+01
 Coeff:      0.202D+00 0.798D+00
 Gap=     0.645 Goal=   None    Shift=    0.000
 RMSDP=3.81D-03 MaxDP=2.33D-02 DE=-1.13D-01 OVMax= 3.32D-02

 Cycle   3  Pass 1  IDiag  1:
 E= -153.189990345624     Delta-E=       -0.022022001931 Rises=F Damp=F
 DIIS: error= 4.53D-03 at cycle   3 NSaved=   3.
 NSaved= 3 IEnMin= 3 EnMin= -153.189990345624     IErMin= 3 ErrMin= 4.53D-03
 ErrMax= 4.53D-03 EMaxC= 1.00D-01 BMatC= 8.70D-04 BMatP= 2.94D-02
 IDIUse=3 WtCom= 9.55D-01 WtEn= 4.53D-02
 Coeff-Com: -0.195D-01 0.104D+00 0.916D+00
 Coeff-En:   0.000D+00 0.000D+00 0.100D+01
 Coeff:     -0.186D-01 0.990D-01 0.920D+00
 Gap=     0.630 Goal=   None    Shift=    0.000
 RMSDP=5.82D-04 MaxDP=5.35D-03 DE=-2.20D-02 OVMax= 6.91D-03

 Cycle   4  Pass 1  IDiag  1:
 E= -153.190715685012     Delta-E=       -0.000725339388 Rises=F Damp=F
 DIIS: error= 1.26D-03 at cycle   4 NSaved=   4.
 NSaved= 4 IEnMin= 4 EnMin= -153.190715685012     IErMin= 4 ErrMin= 1.26D-03
 ErrMax= 1.26D-03 EMaxC= 1.00D-01 BMatC= 4.34D-05 BMatP= 8.70D-04
 IDIUse=3 WtCom= 9.87D-01 WtEn= 1.26D-02
 Coeff-Com: -0.849D-02 0.731D-02 0.228D+00 0.773D+00
 Coeff-En:   0.000D+00 0.000D+00 0.000D+00 0.100D+01
 Coeff:     -0.839D-02 0.721D-02 0.225D+00 0.776D+00
 Gap=     0.631 Goal=   None    Shift=    0.000
 RMSDP=1.59D-04 MaxDP=1.30D-03 DE=-7.25D-04 OVMax= 1.32D-03

 Cycle   5  Pass 1  IDiag  1:
 E= -153.190751854500     Delta-E=       -0.000036169488 Rises=F Damp=F
 DIIS: error= 2.44D-04 at cycle   5 NSaved=   5.
 NSaved= 5 IEnMin= 5 EnMin= -153.190751854500     IErMin= 5 ErrMin= 2.44D-04
 ErrMax= 2.44D-04 EMaxC= 1.00D-01 BMatC= 2.43D-06 BMatP= 4.34D-05
 IDIUse=3 WtCom= 9.98D-01 WtEn= 2.44D-03
 Coeff-Com:  0.322D-02-0.141D-01-0.127D+00-0.925D-01 0.123D+01
 Coeff-En:   0.000D+00 0.000D+00 0.000D+00 0.000D+00 0.100D+01
 Coeff:      0.321D-02-0.141D-01-0.127D+00-0.923D-01 0.123D+01
 Gap=     0.631 Goal=   None    Shift=    0.000
 RMSDP=8.56D-05 MaxDP=7.34D-04 DE=-3.62D-05 OVMax= 7.12D-04

 Cycle   6  Pass 1  IDiag  1:
 E= -153.190756491911     Delta-E=       -0.000004637411 Rises=F Damp=F
 DIIS: error= 4.33D-05 at cycle   6 NSaved=   6.
 NSaved= 6 IEnMin= 6 EnMin= -153.190756491911     IErMin= 6 ErrMin= 4.33D-05
 ErrMax= 4.33D-05 EMaxC= 1.00D-01 BMatC= 4.32D-08 BMatP= 2.43D-06
 IDIUse=1 WtCom= 1.00D+00 WtEn= 0.00D+00
 Coeff-Com: -0.775D-04 0.974D-03 0.640D-02-0.125D-01-0.856D-01 0.109D+01
 Coeff:     -0.775D-04 0.974D-03 0.640D-02-0.125D-01-0.856D-01 0.109D+01
 Gap=     0.631 Goal=   None    Shift=    0.000
 RMSDP=1.03D-05 MaxDP=6.63D-05 DE=-4.64D-06 OVMax= 9.82D-05

 Cycle   7  Pass 1  IDiag  1:
 E= -153.190756574777     Delta-E=       -0.000000082866 Rises=F Damp=F
 DIIS: error= 1.09D-05 at cycle   7 NSaved=   7.
 NSaved= 7 IEnMin= 7 EnMin= -153.190756574777     IErMin= 7 ErrMin= 1.09D-05
 ErrMax= 1.09D-05 EMaxC= 1.00D-01 BMatC= 4.81D-09 BMatP= 4.32D-08
 IDIUse=1 WtCom= 1.00D+00 WtEn= 0.00D+00
 Coeff-Com: -0.337D-03 0.156D-02 0.136D-01 0.596D-02-0.136D+00 0.156D+00
 Coeff-Com:  0.958D+00
 Coeff:     -0.337D-03 0.156D-02 0.136D-01 0.596D-02-0.136D+00 0.156D+00
 Coeff:      0.958D+00
 Gap=     0.631 Goal=   None    Shift=    0.000
 RMSDP=3.42D-06 MaxDP=2.05D-05 DE=-8.29D-08 OVMax= 3.95D-05

 Cycle   8  Pass 1  IDiag  1:
 E= -153.190756583417     Delta-E=       -0.000000008640 Rises=F Damp=F
 DIIS: error= 2.66D-06 at cycle   8 NSaved=   8.
 NSaved= 8 IEnMin= 8 EnMin= -153.190756583417     IErMin= 8 ErrMin= 2.66D-06
 ErrMax= 2.66D-06 EMaxC= 1.00D-01 BMatC= 1.55D-10 BMatP= 4.81D-09
 IDIUse=1 WtCom= 1.00D+00 WtEn= 0.00D+00
 Coeff-Com:  0.974D-04-0.473D-03-0.412D-02-0.122D-02 0.429D-01-0.917D-01
 Coeff-Com: -0.262D+00 0.132D+01
 Coeff:      0.974D-04-0.473D-03-0.412D-02-0.122D-02 0.429D-01-0.917D-01
 Coeff:     -0.262D+00 0.132D+01
 Gap=     0.631 Goal=   None    Shift=    0.000
 RMSDP=9.04D-07 MaxDP=8.36D-06 DE=-8.64D-09 OVMax= 1.05D-05

 Cycle   9  Pass 1  IDiag  1:
 E= -153.190756583845     Delta-E=       -0.000000000428 Rises=F Damp=F
 DIIS: error= 6.05D-07 at cycle   9 NSaved=   9.
 NSaved= 9 IEnMin= 9 EnMin= -153.190756583845     IErMin= 9 ErrMin= 6.05D-07
 ErrMax= 6.05D-07 EMaxC= 1.00D-01 BMatC= 7.39D-12 BMatP= 1.55D-10
 IDIUse=1 WtCom= 1.00D+00 WtEn= 0.00D+00
 Coeff-Com: -0.233D-04 0.115D-03 0.101D-02 0.609D-04-0.105D-01 0.281D-01
 Coeff-Com:  0.623D-01-0.493D+00 0.141D+01
 Coeff:     -0.233D-04 0.115D-03 0.101D-02 0.609D-04-0.105D-01 0.281D-01
 Coeff:      0.623D-01-0.493D+00 0.141D+01
 Gap=     0.631 Goal=   None    Shift=    0.000
 RMSDP=1.97D-07 MaxDP=1.92D-06 DE=-4.28D-10 OVMax= 2.62D-06

 Cycle  10  Pass 1  IDiag  1:
 E= -153.190756583868     Delta-E=       -0.000000000022 Rises=F Damp=F
 DIIS: error= 1.15D-07 at cycle  10 NSaved=  10.
 NSaved=10 IEnMin=10 EnMin= -153.190756583868     IErMin=10 ErrMin= 1.15D-07
 ErrMax= 1.15D-07 EMaxC= 1.00D-01 BMatC= 2.37D-13 BMatP= 7.39D-12
 IDIUse=1 WtCom= 1.00D+00 WtEn= 0.00D+00
 Coeff-Com:  0.392D-05-0.195D-04-0.171D-03 0.347D-04 0.172D-02-0.543D-02
 Coeff-Com: -0.100D-01 0.104D+00-0.466D+00 0.138D+01
 Coeff:      0.392D-05-0.195D-04-0.171D-03 0.347D-04 0.172D-02-0.543D-02
 Coeff:     -0.100D-01 0.104D+00-0.466D+00 0.138D+01
 Gap=     0.631 Goal=   None    Shift=    0.000
 RMSDP=4.17D-08 MaxDP=4.64D-07 DE=-2.25D-11 OVMax= 5.56D-07

 Cycle  11  Pass 1  IDiag  1:
 E= -153.190756583869     Delta-E=       -0.000000000001 Rises=F Damp=F
 DIIS: error= 1.23D-08 at cycle  11 NSaved=  11.
 NSaved=11 IEnMin=11 EnMin= -153.190756583869     IErMin=11 ErrMin= 1.23D-08
 ErrMax= 1.23D-08 EMaxC= 1.00D-01 BMatC= 5.44D-15 BMatP= 2.37D-13
 IDIUse=1 WtCom= 1.00D+00 WtEn= 0.00D+00
 Coeff-Com: -0.679D-06 0.329D-05 0.302D-04-0.139D-04-0.294D-03 0.104D-02
 Coeff-Com:  0.182D-02-0.212D-01 0.111D+00-0.412D+00 0.132D+01
 Coeff:     -0.679D-06 0.329D-05 0.302D-04-0.139D-04-0.294D-03 0.104D-02
 Coeff:      0.182D-02-0.212D-01 0.111D+00-0.412D+00 0.132D+01
 Gap=     0.631 Goal=   None    Shift=    0.000
 RMSDP=5.25D-09 MaxDP=4.95D-08 DE=-7.39D-13 OVMax= 5.55D-08

 SCF Done:  E(RHF) =  -153.190756584     A.U. after   11 cycles
             Convg  =    0.5248D-08             -V/T =  2.0041
 KE= 1.525599222496D+02 PE=-5.209013375483D+02 EE= 1.343747713346D+02
 Leave Link  502 at Wed Dec  4 10:26:09 2019, MaxMem=  805306368 cpu:       0.6
 (Enter /home/programs/G09_64/g09/l601.exe)
 Copying SCF densities to generalized density rwf, IOpCl= 0 IROHF=0.

 **********************************************************************

            Population analysis using the SCF density.

 **********************************************************************

 Orbital symmetries:
       Occupied  (A) (A) (A) (A) (A) (A) (A) (A) (A) (A) (A) (A)
                 (A)
       Virtual   (A) (A) (A) (A) (A) (A) (A) (A) (A) (A) (A) (A)
                 (A) (A) (A) (A) (A) (A) (A) (A) (A) (A) (A) (A)
                 (A) (A)
 The electronic state is 1-A.
 Alpha  occ. eigenvalues --  -20.44216 -11.24434 -11.15569  -1.33810  -1.01002
 Alpha  occ. eigenvalues --   -0.82416  -0.68679  -0.61845  -0.56432  -0.53910
 Alpha  occ. eigenvalues --   -0.51949  -0.46078  -0.39254
 Alpha virt. eigenvalues --    0.23849   0.27465   0.31454   0.33742   0.35609
 Alpha virt. eigenvalues --    0.37334   0.43057   0.47749   0.93227   0.95737
 Alpha virt. eigenvalues --    0.98281   1.03553   1.07276   1.13155   1.23175
 Alpha virt. eigenvalues --    1.26328   1.30889   1.37099   1.37401   1.40057
 Alpha virt. eigenvalues --    1.87163   1.92039   1.98317   2.20424   2.31123
 Alpha virt. eigenvalues --    3.34764
          Condensed to atoms (all electrons):
              1          2          3          4          5          6
     1  O    8.330171   0.223314  -0.044448   0.261396   0.001356   0.001956
     2  C    0.223314   4.962455   0.237214  -0.030846  -0.040320  -0.042353
     3  C   -0.044448   0.237214   5.412170   0.004031   0.361745   0.374766
     4  H    0.261396  -0.030846   0.004031   0.385144  -0.000100  -0.000099
     5  H    0.001356  -0.040320   0.361745  -0.000100   0.518566  -0.022854
     6  H    0.001956  -0.042353   0.374766  -0.000099  -0.022854   0.487123
     7  H    0.001954  -0.045723   0.366436  -0.000071  -0.023033  -0.025370
     8  H   -0.036098   0.354774  -0.050674  -0.003170   0.000526   0.003552
     9  H   -0.035674   0.355231  -0.053800  -0.000825   0.000745  -0.005303
              7          8          9
     1  O    0.001954  -0.036098  -0.035674
     2  C   -0.045723   0.354774   0.355231
     3  C    0.366436  -0.050674  -0.053800
     4  H   -0.000071  -0.003170  -0.000825
     5  H   -0.023033   0.000526   0.000745
     6  H   -0.025370   0.003552  -0.005303
     7  H    0.510638  -0.003008   0.003663
     8  H   -0.003008   0.589605  -0.044438
     9  H    0.003663  -0.044438   0.715221
 Mulliken atomic charges:
              1
     1  O   -0.703928
     2  C    0.026255
     3  C   -0.607439
     4  H    0.384540
     5  H    0.203368
     6  H    0.228581
     7  H    0.214513
     8  H    0.188931
     9  H    0.065179
    10  O    0.000000
    11  H    0.000000
    12  H    0.000000
    13  O    0.000000
    14  H    0.000000
    15  H    0.000000
    16  O    0.000000
    17  H    0.000000
    18  H    0.000000
    19  O    0.000000
    20  H    0.000000
    21  H    0.000000
    22  O    0.000000
    23  H    0.000000
    24  H    0.000000
    25  O    0.000000
    26  H    0.000000
    27  H    0.000000
 Sum of Mulliken atomic charges =   0.00000
 Mulliken charges with hydrogens summed into heavy atoms:
              1
     1  O   -0.319388
     2  C    0.280365
     3  C    0.039023
    10  O    0.000000
    13  O    0.000000
    16  O    0.000000
    19  O    0.000000
    22  O    0.000000
    25  O    0.000000
 Sum of Mulliken charges with hydrogens summed into heavy atoms =   0.00000
 Electronic spatial extent (au):  <R**2>=            695.5719
 Charge=              0.0000 electrons
 Dipole moment (field-independent basis, Debye):
    X=             -0.4322    Y=             -1.4919    Z=              0.2722  Tot=              1.5769
 Quadrupole moment (field-independent basis, Debye-Ang):
   XX=            -16.6656   YY=            -16.5346   ZZ=            -20.9241
   XY=              0.2762   XZ=             -0.7513   YZ=             -0.4257
 Traceless Quadrupole moment (field-independent basis, Debye-Ang):
   XX=              1.3758   YY=              1.5068   ZZ=             -2.8826
   XY=              0.2762   XZ=             -0.7513   YZ=             -0.4257
 Octapole moment (field-independent basis, Debye-Ang**2):
  XXX=            131.3480  YYY=             21.0473  ZZZ=             10.3682  XYY=             46.8998
  XXY=              8.1506  XXZ=              4.8027  XZZ=             49.4777  YZZ=             10.4264
  YYZ=              3.5202  XYZ=              1.6137
 Hexadecapole moment (field-independent basis, Debye-Ang**3):
 XXXX=           -768.0916 YYYY=            -97.7292 ZZZZ=            -39.6812 XXXY=            -36.5501
 XXXZ=            -25.0801 YYYX=            -39.4855 YYYZ=            -10.3250 ZZZX=            -24.1884
 ZZZY=             -8.9554 XXYY=           -153.5985 XXZZ=           -146.2211 YYZZ=            -24.7968
 XXYZ=             -7.1253 YYXZ=             -9.5829 ZZXY=            -16.7218
 N-N= 8.077588738020D+01 E-N=-5.209013376680D+02  KE= 1.525599222496D+02
 No NMR shielding tensors so no spin-rotation constants.
 Leave Link  601 at Wed Dec  4 10:26:09 2019, MaxMem=  805306368 cpu:       0.8
 (Enter /home/programs/G09_64/g09/l701.exe)
 Compute integral first derivatives.
 ... and contract with generalized density number  0.
 Leave Link  701 at Wed Dec  4 10:26:09 2019, MaxMem=  805306368 cpu:       0.8
 (Enter /home/programs/G09_64/g09/l702.exe)
 L702 exits ... SP integral derivatives will be done elsewhere.
 Leave Link  702 at Wed Dec  4 10:26:09 2019, MaxMem=  805306368 cpu:       0.2
 (Enter /home/programs/G09_64/g09/l703.exe)
 Compute integral first derivatives, UseDBF=F ICtDFT=           0.
 Integral derivatives from FoFDir, PRISM(SPDF).
 Calling FoFJK, ICntrl=      2127 FMM=F ISym2X=0 I1Cent= 0 IOpClX= 0 NMat=1 NMatS=1 NMatT=0.
 FoFCou: FMM=F IPFlag=           0 FMFlag=      100000 FMFlg1=         800
         NFxFlg=           0 DoJE=F BraDBF=F KetDBF=F FulRan=T
         Omega=  0.000000  0.000000  1.000000  0.000000  0.000000 ICntrl=    2127 IOpCl=  0
         NMat0=    1 NMatS0=    1 NMatT0=    0 NMatD0=    1 NMtDS0=    0 NMtDT0=    0
         I1Cent=           0 NGrid=           0.
 Symmetry not used in FoFCou.
 Leave Link  703 at Wed Dec  4 10:26:09 2019, MaxMem=  805306368 cpu:       0.7
 (Enter /home/programs/G09_64/g09/l716.exe)
 Dipole        =-1.70026464D-01-5.86966727D-01 1.07110754D-01
 ***** Axes restored to original set *****
 Cartesian Forces:  Max     0.088445593 RMS     0.017383191
 Leave Link  716 at Wed Dec  4 10:26:09 2019, MaxMem=  805306368 cpu:       0.2
 (Enter /home/programs/G09_64/g09/l120.exe)
 SvSCFP is copying densities from files   528 and   530 to   603.
 ONIOM: saving gridpoint  2
 ONIOM: restoring gridpoint 17
 ONIOM: generating point  1 -- low level on model system.
 Leave Link  120 at Wed Dec  4 10:26:09 2019, MaxMem=  805306368 cpu:       0.2
 (Enter /home/programs/G09_64/g09/l301.exe)
 Standard basis: STO-3G (5D, 7F)
 Ernie: Thresh=  0.10000D-02 Tol=  0.10000D-05 Strict=F.
 There are    21 symmetry adapted basis functions of A   symmetry.
 Integral buffers will be    131072 words long.
 Raffenetti 1 integral format.
 Two-electron integral symmetry is turned on.
    21 basis functions,    63 primitive gaussians,    21 cartesian basis functions
    13 alpha electrons       13 beta electrons
       nuclear repulsion energy        80.7758873802 Hartrees.
 IExCor=    0 DFT=F Ex=HF Corr=None ExCW=0 ScaHFX=  1.000000
 ScaDFX=  1.000000  1.000000  1.000000  1.000000 ScalE2=  1.000000  1.000000
 IRadAn=      0 IRanWt=     -1 IRanGd=            0 ICorTp=0
 NAtoms=   27 NActive=    9 NUniq=    9 SFac= 1.00D+00 NAtFMM=   50 NAOKFM=F Big=F
 Leave Link  301 at Wed Dec  4 10:26:09 2019, MaxMem=  805306368 cpu:       0.3
 (Enter /home/programs/G09_64/g09/l302.exe)
 NPDir=0 NMtPBC=     1 NCelOv=     1 NCel=       1 NClECP=     1 NCelD=      1
         NCelK=      1 NCelE2=     1 NClLst=     1 CellRange=     0.0.
 One-electron integrals computed using PRISM.
 NBasis=    21 RedAO= T  NBF=    21
 NBsUse=    21 1.00D-06 NBFU=    21
 Leave Link  302 at Wed Dec  4 10:26:10 2019, MaxMem=  805306368 cpu:       0.9
 (Enter /home/programs/G09_64/g09/l303.exe)
 DipDrv:  MaxL=1.
 Leave Link  303 at Wed Dec  4 10:26:10 2019, MaxMem=  805306368 cpu:       0.2
 (Enter /home/programs/G09_64/g09/l401.exe)
 Harris functional with IExCor=  205 diagonalized for initial guess.
 ExpMin= 1.69D-01 ExpMax= 1.31D+02 ExpMxC= 1.31D+02 IAcc=1 IRadAn=         1 AccDes= 0.00D+00
 HarFok:  IExCor=  205 AccDes= 0.00D+00 IRadAn=         1 IDoV= 1
 ScaDFX=  1.000000  1.000000  1.000000  1.000000
 FoFCou: FMM=F IPFlag=           0 FMFlag=      100000 FMFlg1=           0
         NFxFlg=           0 DoJE=T BraDBF=F KetDBF=T FulRan=T
         Omega=  0.000000  0.000000  1.000000  0.000000  0.000000 ICntrl=     500 IOpCl=  0
         NMat0=    1 NMatS0=    1 NMatT0=    0 NMatD0=    1 NMtDS0=    0 NMtDT0=    0
         I1Cent=           4 NGrid=           0.
 Petite list used in FoFCou.
 Harris En= -152.313067458130    
 Initial guess orbital symmetries:
       Occupied  (A) (A) (A) (A) (A) (A) (A) (A) (A) (A) (A) (A)
                 (A)
       Virtual   (A) (A) (A) (A) (A) (A) (A) (A)
 The electronic state of the initial guess is 1-A.
 Leave Link  401 at Wed Dec  4 10:26:10 2019, MaxMem=  805306368 cpu:       1.0
 (Enter /home/programs/G09_64/g09/l502.exe)
 Closed shell SCF:
 Requested convergence on RMS density matrix=1.00D-08 within 128 cycles.
 Requested convergence on MAX density matrix=1.00D-06.
 Requested convergence on             energy=1.00D-06.
 No special actions if energy rises.
 Using DIIS extrapolation, IDIIS=  1040.
 Integral symmetry usage will be decided dynamically.
 Keep R1 ints in memory in canonical form, NReq=846660.
 IEnd=       19850 IEndB=       19850 NGot=   805306368 MDV=   805276797
 LenX=   805276797 LenY=   805275915
 Symmetry not used in FoFDir.
 MinBra= 0 MaxBra= 1 Meth= 1.
 IRaf=       0 NMat=   1 IRICut=       1 DoRegI=T DoRafI=F ISym2E= 0 JSym2E=0.

 Cycle   1  Pass 1  IDiag  1:
 E= -152.000859154078    
 DIIS: error= 3.70D-02 at cycle   1 NSaved=   1.
 NSaved= 1 IEnMin= 1 EnMin= -152.000859154078     IErMin= 1 ErrMin= 3.70D-02
[...]
 14366,-0.00024235,-0.00009870,-0.00002016,0.00016582,-0.00002033,0.000
 12137,0.00030035,-0.00000993,0.00007541,-0.00043948,0.00010753,0.00003
 159,-0.00001030,-0.00024907,-0.00052519,0.00057096,-0.00197133,-0.0011
 9809,-0.00011679,-0.00182862,0.00452920,0.00059677,-0.00037781,0.00003
 069,0.00013037,0.30799127,-0.32548834,-0.04631585,-0.32523226,0.335857
 27,-0.00034908,0.00030578,0.00025375,0.00017718,0.00004319,0.00000254,
 -0.00003142,0.00000772,-0.00000570,-0.00001927,-0.00012933,-0.00008048
 ,-0.00001523,-0.00000662,0.00000513,0.00001883,0.00000943,0.00001454,0
 .00000958,-0.00000079,-0.00001132,-0.00005209,0.00000609,0.00000370,-0
 .00003599,0.00000155,-0.00000150,0.00003795,0.00030990,0.00017365,0.00
 010646,-0.00008298,-0.00004894,0.00023853,-0.00007249,-0.00027458,0.00
 001251,-0.00028213,0.00038448,-0.00021647,-0.00005657,0.00003754,0.000
 11874,0.00081726,-0.00054073,-0.00158908,-0.00121850,0.00012853,0.0044
 3367,0.00464441,0.00055895,0.00056202,-0.00051583,-0.00032331,-0.05960
 374,0.02034252,-0.06637103,0.00582025,0.02376458,0.06408952,0.00097514
 ,0.00044534,0.00053355,-0.00043449,-0.00009464,-0.00003390,0.00012709,
 -0.00006721,0.00000496,-0.00143605,-0.00015463,0.00002778,0.00003560,0
 .00005946,-0.00000157,-0.00000758,0.00000330,-0.00002660,-0.00002314,-
 0.00000007,0.00002733,0.00013483,0.00000933,0.00001582,0.00014716,-0.0
 0000798,0.00000531,0.00162256,0.00136111,-0.00154510,-0.00084308,0.000
 12190,0.00025491,-0.00024218,-0.00175314,-0.00013078,-0.00020649,0.001
 01220,0.00069188,0.00025716,0.00005906,0.00001013,-0.00032546,-0.00048
 373,-0.00068636,-0.00237094,-0.00024428,0.00279988,0.00822925,-0.00057
 645,-0.00984596,-0.00105648,-0.00061519,-0.00089874,-0.07710423,0.0069
 8492,-0.05678123,-0.00126665,0.02288642,0.05107386,0.09969176,-0.00056
 926,-0.00232580,-0.00211726,0.00029700,-0.00013777,0.00006023,-0.00011
 836,0.00006317,0.00002126,0.00328161,0.00269221,0.00042081,-0.00000115
 ,-0.00008200,-0.00001599,-0.00006676,-0.00004221,-0.00001218,-0.000000
 78,0.00000526,0.00000272,0.00002327,-0.00005544,-0.00004421,-0.0000746
 0,0.00000970,-0.00001097,-0.00739182,-0.00768285,0.00137138,0.00050007
 ,-0.00000141,0.00068012,-0.00090059,0.00374413,0.00295987,0.00032682,-
 0.00147113,-0.00325276,0.00038602,0.00023590,-0.00010957,-0.00076721,-
 0.00246882,0.00279877,0.00499760,0.00213037,-0.00094405,-0.01259214,-0
 .00464510,-0.00496177,-0.00154343,0.00227442,0.00137350,0.04079387,-0.
 10528970,-0.11585168,-0.00421351,-0.01390832,-0.04674626,-0.02817628,0
 .14080508,-0.00126190,-0.00199147,-0.00507400,0.00054437,-0.00005283,0
 .00020717,-0.00016092,0.00007682,0.00004166,0.00310774,0.00256543,0.00
 143255,-0.00002778,-0.00008725,-0.00004563,-0.00007572,-0.00006557,0.0
 0001263,0.00006159,0.00004347,-0.00004133,0.00000709,-0.00008807,-0.00
 008321,-0.00020884,0.00005626,-0.00007803,-0.01711517,-0.01466318,0.00
 494696,0.00222574,-0.00130844,0.00205328,-0.00014026,0.00845216,0.0049
 2143,0.00029186,-0.00346858,-0.00650539,-0.00017082,0.00002367,-0.0002
 3674,0.00003138,-0.00417043,0.00643298,0.00914126,0.00545016,-0.004852
 85,-0.02205919,-0.00743024,-0.00095940,-0.00197240,0.00278490,0.002869
 22,0.01323164,-0.18152546,-0.47183248,-0.01627789,0.02292060,0.0086581
 3,0.01588700,0.15737547,0.46646972,-0.04016433,-0.05265890,0.00062555,
 0.01426120,-0.00825038,0.00052626,-0.00451963,0.00158858,-0.00029532,-
 0.00704370,0.00956920,-0.01315581,-0.00049909,-0.00159565,0.00025181,0
 .00001267,0.00006581,0.00019336,-0.00000569,-0.00007054,-0.00015477,-0
 .00149871,0.00019417,-0.00008480,-0.00164307,0.00006606,0.00011866,0.0
 1172960,0.00623161,-0.00218634,-0.00579149,0.00417551,-0.00649781,-0.0
 0032784,-0.00167298,-0.00099595,0.00052423,0.00028978,0.00152580,0.000
 14064,0.00042081,0.00004831,-0.00076295,0.00140807,-0.00171735,0.00371
 525,-0.00187046,-0.00008442,-0.00439277,-0.00187354,-0.00053197,-0.005
 30809,0.00559794,0.00484491,0.00287084,0.00286766,0.00290392,-0.000016
 39,-0.00004040,0.00006940,0.00127871,-0.00444546,-0.00815460,0.5220129
 7,-0.05014356,-0.03066051,-0.00177365,0.01109552,-0.00980156,0.0006404
 9,-0.00475582,0.00175032,-0.00031871,0.02188110,-0.02140144,-0.0015758
 9,-0.00054788,-0.00157076,0.00023133,0.00012020,0.00016483,0.00019953,
 0.00012175,0.00005111,-0.00020348,-0.00169614,0.00007484,0.00002169,-0
 .00183284,0.00003609,-0.00000753,-0.00024294,-0.00224724,0.00198812,-0
 .00272601,0.00248373,-0.00482328,-0.00016234,0.00236571,0.00070825,0.0
 0065675,-0.00192323,-0.00016497,-0.00029140,0.00020384,-0.00005382,-0.
 00041414,0.00158486,-0.00096342,0.00186348,-0.00161729,-0.00102361,-0.
 00202943,-0.00074333,0.00058985,-0.00318455,0.00434960,0.00439406,0.00
 204575,0.00109971,-0.00141139,-0.00008740,-0.00028195,0.00020148,-0.00
 151756,0.00057242,0.00352617,-0.13338103,0.32908252,-0.00401549,-0.004
 67058,0.01445599,0.00274097,-0.00107756,0.00033103,-0.00087466,0.00029
 213,-0.00005404,0.00841587,0.01186510,-0.03751470,-0.00009812,-0.00034
 433,0.00004887,0.00001385,0.00002512,0.00005205,-0.00003497,-0.0000781
 2,-0.00002747,-0.00054661,-0.00002330,-0.00003983,-0.00022836,0.000037
 89,0.00011333,0.00409409,0.00285785,-0.00047443,-0.00142760,0.00087156
 ,-0.00199074,-0.00004672,-0.00114811,-0.00087755,0.00017166,0.00028849
 ,0.00117970,0.00003334,0.00010882,0.00002987,-0.00025561,0.00107047,-0
 .00129978,0.00091013,-0.00108555,0.00066322,-0.00146785,-0.00005042,-0
 .00006232,-0.00069744,0.00185645,0.00081594,0.00096054,0.00081695,0.00
 130263,0.00031390,-0.00030870,0.00006139,-0.00019022,-0.00115932,-0.00
 410884,-0.07273917,-0.28372525,0.68677338,0.00708232,0.00949148,-0.001
 01727,-0.00236251,0.00134153,-0.00006198,0.00098502,-0.00039233,0.0000
 9372,-0.02814296,-0.01052661,-0.00426641,0.00010927,0.00044251,-0.0000
 7892,0.00004256,0.00003185,-0.00003536,0.00006028,0.00006632,0.0000059
 7,0.00037808,0.00002828,0.00005837,0.00039647,0.00004958,-0.00008466,-
 0.01610220,-0.00986948,0.00477056,0.00207399,-0.00394867,0.00328741,0.
 00008650,0.00304786,0.00166964,-0.00019707,-0.00117848,-0.00186651,-0.
 00027765,-0.00025853,-0.00009395,0.00050833,-0.00106402,0.00162459,-0.
 00215380,0.00124066,-0.00095922,0.00376605,0.00075749,0.00055846,0.001
 44378,-0.00256715,-0.00131636,-0.00211015,-0.00281767,-0.00519590,-0.0
 0050681,0.00031135,-0.00009664,-0.00202090,0.00803895,0.01540878,-0.29
 699409,0.19184614,-0.12894054,0.31201441,-0.00530196,-0.01232228,0.002
 81215,0.00194397,-0.00137108,0.00003914,-0.00069381,0.00020582,-0.0000
 6674,0.01175501,0.02748029,-0.00554725,-0.00003839,-0.00032525,0.00007
 055,-0.00008344,-0.00005517,-0.00000210,-0.00011766,-0.00009375,0.0000
 4138,-0.00002149,0.00000152,-0.00006608,0.00000568,-0.00005263,0.00013
 870,0.01577018,0.01206729,-0.00573936,-0.00432957,0.00240844,-0.002556
 43,-0.00003984,-0.00534022,-0.00238463,-0.00013553,0.00278950,0.002586
 00,0.00050249,0.00026346,0.00014392,-0.00046592,0.00032289,-0.00156196
 ,0.00217637,-0.00080388,0.00155157,-0.00302427,-0.00094880,-0.00130138
 ,-0.00205437,0.00209192,0.00053496,0.00081996,0.00214941,0.00622993,0.
 00041268,0.00009643,-0.00002625,0.00457101,-0.00805130,-0.01708848,0.1
 4965724,-0.18560590,0.11720645,-0.15093833,0.19410304,0.00534794,0.007
 50504,-0.00271051,-0.00184224,0.00108857,0.00013864,0.00073297,-0.0002
 6571,0.00005166,-0.01798513,-0.01466515,0.00218578,0.00007784,0.000313
 70,-0.00006702,0.00001232,-0.00000261,-0.00003059,0.00006375,0.0000855
 2,-0.00000132,0.00029666,-0.00002803,0.00002342,0.00021444,0.00003367,
 -0.00013509,-0.00887155,-0.00751616,0.00201091,0.00249791,-0.00144377,
 0.00280028,-0.00012189,0.00328620,0.00201789,-0.00004602,-0.00149192,-
 0.00239027,-0.00018209,-0.00014066,-0.00008640,0.00031479,-0.00135358,
 0.00202233,-0.00094329,0.00148108,-0.00135850,0.00126882,-0.00030419,0
 .00031351,0.00056952,-0.00159408,-0.00043453,-0.00038268,-0.00059714,-
 0.00318388,-0.00077399,0.00057978,-0.00008995,0.00106480,-0.00026868,0
 .01001106,-0.04523211,0.08427321,-0.12884848,0.09422683,-0.09785129,0.
 16956859,-0.00324047,-0.00320623,-0.00318264,0.00098161,-0.00077126,0.
 00045839,-0.00040334,0.00015639,-0.00009164,0.00644337,0.00741520,0.01
 446604,-0.00004975,-0.00012862,0.00001752,-0.00000074,-0.00001542,0.00
 001448,0.00002881,0.00005227,-0.00002483,-0.00008266,0.00000975,-0.000
 04680,-0.00022534,-0.00000906,-0.00009618,0.00042307,-0.00011746,-0.00
 021820,-0.00016224,0.00052056,-0.00022378,0.00000918,0.00034027,0.0002
 2945,0.00001840,-0.00016234,-0.00029326,-0.00001736,0.00000969,-0.0000
 0146,0.00001396,-0.00015938,0.00028150,-0.00002711,0.00014465,-0.00045
 762,0.00032136,-0.00008277,0.00012431,-0.00034718,0.00008734,0.0005907
 3,-0.00029559,-0.00024767,-0.00002149,-0.00001147,0.00002337,-0.000005
 59,0.00009483,0.00036741,-0.00018010,-0.14783308,-0.06240514,0.2212409
 5,0.02031482,0.01214693,-0.04689013,0.12968911,-0.00063689,-0.00086541
 ,-0.00237598,-0.00016357,-0.00022373,0.00007595,0.00001592,-0.00000950
 ,-0.00000929,-0.00083313,-0.00075538,0.00979953,0.00001523,0.00001383,
 -0.00000582,-0.00002254,-0.00002390,-0.00000872,-0.00000031,0.00001416
 ,0.00000478,0.00012437,-0.00000186,-0.00003701,0.00003027,0.00001581,-
 0.00001692,0.00020589,-0.00002835,-0.00038687,-0.00006855,0.00009785,0
 .00023528,-0.00003201,0.00005080,0.00023969,-0.00007873,0.00017301,-0.
 00044206,0.00006035,0.00000803,-0.00000292,0.00004101,-0.00066583,0.00
 069031,0.00015029,0.00063429,-0.00047991,-0.00005932,-0.00057300,-0.00
 009321,-0.00050421,-0.00023543,0.00027663,-0.00004544,0.00037440,0.000
 05333,-0.00035887,0.00040821,-0.00015023,0.00065698,-0.00063829,0.0008
 6753,-0.02045454,-0.06476633,0.13046000,-0.02089833,-0.00496495,0.0332
 7588,0.04121865,0.07338733,-0.00198584,-0.00193997,0.00064639,-0.00038
 551,-0.00020455,-0.00018455,0.00001812,-0.00001490,0.00003077,-0.00038
 698,-0.00112675,0.00164309,0.00000337,0.00002343,0.00000020,0.00000733
 ,0.00001950,-0.00000876,-0.00000907,-0.00001266,0.00001086,0.00002507,
 0.00002105,0.00002813,0.00007655,0.00001044,0.00004138,-0.00039744,0.0
 0034455,0.00025362,-0.00013339,-0.00049095,-0.00001275,0.00003392,-0.0
 0052614,-0.00030797,-0.00007424,0.00035247,0.00031389,0.00002539,-0.00
 002151,0.00000879,0.00003267,0.00002862,-0.00015606,-0.00018913,-0.000
 03584,0.00020029,0.00039289,0.00018176,-0.00002536,0.00018648,-0.00021
 878,-0.00027112,-0.00038970,-0.00035461,0.00017445,0.00010101,-0.00003
 317,-0.00003188,0.00008974,0.00035842,-0.00052558,0.15704266,0.1823374
 7,-0.53302612,0.03138365,-0.00727602,-0.01979528,-0.18481410,-0.170513
 53,0.54906832,-0.00493509,-0.00184349,-0.00652544,0.00226789,-0.000189
 53,0.00011997,-0.00052091,0.00015769,0.00006653,0.00747632,0.00701494,
 0.00118964,-0.00013222,-0.00019556,-0.00004967,-0.00000929,-0.00002129
 ,0.00007560,0.00014737,0.00005299,-0.00012368,-0.00027110,-0.00006464,
 -0.00007645,-0.00052337,0.00008752,-0.00008330,-0.06654963,-0.07190492
 ,0.03080703,0.00704783,-0.00547596,0.00595357,-0.00634877,0.01865353,0
 .01247502,0.00182586,-0.00950646,-0.00948619,-0.00015319,0.00035463,-0
 .00039210,-0.00071657,-0.00237507,0.00469320,0.00354270,0.00229817,-0.
 00361190,-0.00937897,-0.00298800,0.00009149,-0.00138230,0.00189428,0.0
 0234301,0.01546586,0.00831718,0.01248858,0.00118412,-0.00178715,-0.000
 80574,-0.02723892,-0.00903581,-0.01941168,-0.02174464,0.03101402,-0.02
 085773,-0.02852886,-0.00372693,0.00600226,-0.00459205,0.00211471,-0.00
 169892,0.64117938,0.00257275,0.01295333,-0.00580991,-0.00136017,0.0012
 3675,-0.00011756,0.00067049,-0.00027648,0.00015189,-0.02010004,-0.0204
 2546,0.00033938,-0.00001334,0.00039142,-0.00012060,0.00013179,0.000093
 73,0.00003974,0.00022648,0.00013502,-0.00011692,0.00003004,0.00002692,
 0.00008999,-0.00007859,0.00012805,-0.00018929,-0.07838932,-0.03745301,
 0.02655702,0.00530943,-0.01069088,0.00825709,-0.00095839,0.01709270,0.
 00878695,0.00071795,-0.00746819,-0.00706901,-0.00098558,-0.00033693,-0
 .00040871,0.00065691,-0.00152662,0.00389608,-0.00338298,0.00197069,-0.
 00300554,0.00588504,0.00121605,0.00154159,0.00206228,-0.00318262,-0.00
 069607,0.00155143,0.00054834,-0.02207252,-0.00240514,0.00058575,-0.000
 03010,-0.00191350,-0.01931938,0.00503149,0.05308830,-0.01931823,0.0301
 9345,-0.02649431,-0.01251743,-0.02608134,0.00479066,-0.00162611,-0.000
 61891,0.21135690,0.27019812,0.00023131,-0.00373571,0.00858866,-0.00016
 979,-0.00053020,-0.00026681,-0.00012632,0.00005801,-0.00011425,0.00615
 656,0.00616107,-0.00201515,0.00004077,-0.00008009,0.00010877,0.0000251
 6,0.00003243,-0.00002858,-0.00018093,-0.00012570,0.00010028,-0.0000352
 0,0.00009785,0.00005229,0.00026449,-0.00011624,0.00019554,0.05547558,0
 .04604831,0.00556761,-0.00423001,0.00679356,-0.00761096,0.00431358,-0.
 01767701,-0.01208894,-0.00112814,0.00869842,0.01119357,0.00036136,-0.0
 0008390,0.00043216,0.00012508,0.00491131,-0.00794839,-0.00517154,-0.00
 497299,0.00603157,0.01612060,0.00603368,-0.00020852,0.00119868,-0.0014
 4341,-0.00245380,-0.00052128,-0.02896122,-0.04587989,-0.00192531,-0.00
 073796,-0.00551531,0.00322416,0.00332325,-0.00886171,-0.02315261,0.018
 07334,-0.00071205,-0.00218664,0.00343971,-0.02418951,-0.00100014,-0.00
 138088,0.00222795,0.23454259,-0.01030600,0.53878738,0.00509670,-0.0097
 4729,0.01657319,-0.00184240,-0.00127412,0.00007340,0.00003000,0.000021
 46,-0.00022731,0.01043612,0.01073242,-0.00253131,0.00019587,-0.0000870
 0,0.00018499,-0.00009437,-0.00003577,-0.00014367,-0.00043114,-0.000201
 79,0.00027939,0.00034952,0.00009415,0.00004216,0.00092284,-0.00024231,
 0.00031274,-0.04836464,0.03630786,-0.00867733,-0.03006752,0.00190551,-
 0.00534313,0.01452460,-0.04372275,-0.02664025,-0.00364981,0.02451111,0
 .02339223,0.00094300,-0.00020010,0.00117581,0.00084127,0.00546415,-0.0
 1133248,-0.00254491,-0.00551722,0.00822039,0.00954508,0.00379423,-0.00
 043041,0.00054030,-0.00010953,-0.00313693,-0.00631643,-0.00788683,-0.0
 1104341,-0.00007105,0.00035951,-0.00015202,-0.00238600,0.01250697,0.03
 184013,-0.01829907,0.00266418,-0.00709477,0.03243103,-0.02254402,0.013
 10847,-0.00081685,-0.00019393,0.00092458,-0.14314194,-0.04433592,-0.01
 213690,0.19163329,0.00322746,-0.00985839,0.01254958,-0.00101169,-0.000
 82187,0.00013368,-0.00012751,0.00012692,-0.00022536,0.01063581,0.00850
 408,-0.00003310,0.00013211,-0.00017638,0.00016129,-0.00010003,-0.00006
 397,-0.00010457,-0.00032673,-0.00015968,0.00022705,0.00017646,0.000021
 70,-0.00001160,0.00053692,-0.00020999,0.00021929,0.01761963,-0.0491101
 4,-0.00343155,0.00357713,0.02393203,-0.01433416,-0.01315678,-0.0364670
 6,-0.00821811,-0.00119300,0.01464451,0.01411483,0.00128274,0.00031773,
 0.00092415,-0.00012639,0.00399606,-0.00868334,-0.00098220,-0.00443466,
 0.00644485,0.00575565,0.00279469,-0.00085444,-0.00014739,0.00090136,-0
 .00171244,-0.00455420,-0.00698152,-0.00792857,0.00055532,0.00014891,-0
 .00065963,0.00121156,0.01391104,0.02115254,-0.01317271,0.00206129,-0.0
 0593927,0.01383895,-0.02591506,0.01814870,-0.00049571,0.00012994,-0.00
 037386,-0.07966880,-0.11025566,0.01973705,0.04841921,0.16926390,-0.000
 92912,0.00454203,-0.00800629,0.00046234,0.00022321,0.00015874,0.000109
 73,-0.00011396,0.00013226,-0.00556340,-0.00322399,0.00064309,-0.000040
 04,0.00010667,-0.00010340,0.00000368,0.00000418,0.00002053,0.00016354,
 0.00011935,-0.00009988,0.00007326,-0.00005862,-0.00000751,-0.00016901,
 0.00011088,-0.00016708,0.01370288,0.00265145,-0.05510735,-0.01020144,-
 0.01494447,0.01126705,-0.01439336,0.01328479,0.01473542,0.00155737,-0.
 01009346,-0.01134328,-0.00001351,0.00025542,-0.00042154,-0.00062080,-0
 .00405358,0.00517616,0.00136693,0.00309654,-0.00283978,-0.00338540,-0.
 00162599,-0.00103558,-0.00122304,0.00018218,0.00060678,0.00131061,0.00
 154389,0.00431293,-0.00000959,0.00017908,-0.00016851,0.00513093,0.0005
 0546,-0.01173057,0.00667141,-0.00227820,0.00229431,-0.00766864,0.01234
 308,-0.00601330,0.00036672,0.00032949,-0.00014249,0.07043275,0.0705276
 4,-0.12548408,-0.02133979,-0.04365017,0.16647112,-0.00060798,-0.000045
 14,0.00000483,0.00023778,0.00001935,-0.00007325,-0.00007820,0.00004007
 ,0.00000016,0.00091676,0.00008271,-0.00003711,-0.00002090,-0.00003140,
 0.00000363,0.00001330,0.00000826,0.00001598,0.00000860,-0.00000989,-0.
 00001617,-0.00008589,0.00000842,-0.00000078,-0.00008796,0.00000382,0.0
 0001398,-0.00220903,-0.00296818,0.00521515,0.00119660,-0.00014949,-0.0
 0026146,0.00001065,0.00116676,0.00008454,0.00010888,-0.00050197,-0.000
 08357,-0.00010123,-0.00002661,-0.00003925,0.00003438,0.00033288,-0.000
 05361,-0.00000979,-0.00016767,-0.00017784,-0.00034418,0.00000835,0.000
 28910,0.00024262,0.00004162,0.00017042,-0.00040889,0.00179208,0.004198
 37,0.00010047,0.00006304,0.00029340,0.00436850,-0.00162243,-0.00456132
 ,0.00029850,0.00210929,0.00062057,-0.00229590,-0.00624600,-0.00252820,
 -0.00023327,-0.00028332,0.00012091,-0.36396953,-0.10863318,-0.27011511
 ,-0.00946348,0.00809419,-0.03579502,0.37237920,0.00013724,0.00034393,-
 0.00025782,-0.00005220,0.00010274,0.00001164,0.00003345,-0.00000988,0.
 00000034,-0.00094287,-0.00083582,0.00010619,0.00000003,0.00001048,-0.0
 0000357,0.00000030,-0.00000200,-0.00000016,0.00000493,0.00000661,-0.00
 000308,0.00000372,-0.00000492,-0.00000211,-0.00000846,-0.00000105,-0.0
 0000834,-0.00392871,-0.00456965,0.00447457,0.00093234,-0.00015048,0.00
 026778,-0.00054609,0.00122079,0.00038113,0.00021116,-0.00068817,-0.000
 33835,0.00003093,0.00004190,-0.00002034,-0.00008678,0.00019433,-0.0000
 4817,-0.00004172,-0.00012146,0.00000817,0.00015228,0.00013259,0.000074
 93,0.00007457,-0.00005766,0.00004508,0.00082924,-0.00045632,-0.0012106
 0,0.00007054,-0.00023017,-0.00047620,-0.00377790,-0.00032418,0.0016133
 3,0.00426584,-0.00594309,0.00165979,0.00042095,0.01438768,0.00353297,0
 .00051789,0.00007039,0.00008444,-0.09453294,-0.06217988,-0.05325667,-0
 .01068218,0.00370023,-0.02996290,0.10691443,0.05536307,-0.00043940,-0.
 00033263,0.00045019,0.00023728,0.00000619,0.00000516,-0.00007756,0.000
 03563,-0.00001408,0.00113275,0.00033200,0.00000748,-0.00001659,-0.0000
 3550,0.00001045,0.00001082,0.00000466,0.00000977,0.00000029,-0.0000049
 2,-0.00000533,-0.00007429,0.00000202,-0.00000051,-0.00005797,-0.000007
 39,0.00000637,0.00706340,0.00533469,-0.00366175,0.00000176,0.00054494,
 -0.00057902,0.00017063,-0.00051738,-0.00063532,0.00008686,0.00003855,0
 .00062840,-0.00004761,0.00000537,0.00002828,-0.00001366,0.00075906,-0.
 00070070,-0.00043304,-0.00060312,0.00025885,0.00111918,0.00065608,0.00
 041715,0.00035012,-0.00005108,0.00001088,0.00239132,-0.00152369,-0.002
 96182,-0.00005803,-0.00085577,-0.00090862,-0.01070158,0.00424343,0.006
 87895,0.00016096,0.00113822,0.00091464,0.00078102,-0.00566956,-0.00180
 944,-0.00024211,-0.00040505,-0.00016022,-0.31815844,-0.07876984,-0.329
 90781,0.01410221,0.00234715,0.01685226,0.30271167,0.07332794,0.3148658
 0\\-0.00000073,0.00000011,0.00000006,-0.00000024,0.00000040,-0.0000001
 5,-0.00000004,-0.00000015,-0.00000004,0.00000055,-0.00000069,-0.000000
 56,0.,-0.00000002,-0.00000003,0.00000004,0.,0.,-0.00000001,0.00000005,
 -0.00000001,0.00000009,-0.00000015,0.00000011,0.00000007,0.00000006,0.
 00000019,-0.00000051,0.00000069,0.00000080,-0.00000011,-0.00000039,0.0
 0000059,0.00000039,-0.00000086,-0.00000053,-0.00000013,0.00000063,0.00
 000017,-0.00000004,0.00000016,0.00000014,0.00000027,-0.00000017,-0.000
 00020,-0.00000018,-0.00000062,-0.00000009,-0.00000025,0.00000073,0.000
 00014,0.00000056,0.00000039,0.00000004,0.00000027,-0.00000047,-0.00000
 009,0.00000016,-0.00000011,-0.00000012,-0.00000048,0.00000053,-0.00000
 009,0.00000009,0.00000039,0.00000024,-0.00000041,-0.00000008,-0.000000
 62,0.00000005,-0.00000004,0.00000011,0.00000046,-0.00000067,0.00000057
 ,0.00000033,0.00000016,-0.00000082,-0.00000022,0.00000012,0.00000019\\
 \@


 A SOLDIER'S LIFE IS A LIFE OF HONOR, BUT A DOG WOULD NOT LEAD IT.
 -- PRINCE RUPERT, FOUNDER OF THE HUDSON'S BAY COMPANY
 Job cpu time:  0 days  0 hours  0 minutes 36.6 seconds.
 File lengths (MBytes):  RWF=     21 Int=      0 D2E=      0 Chk=      3 Scr=      1
 Normal termination of Gaussian 09 at Wed Dec  4 10:27:17 2019.
