[Molden Format]
[FR-COORD] # Coordinates in bohr
  C    +2.386967    -0.021578    -0.429685 
  C    -0.196375    -1.017129    +0.468542 
  O    -2.263516    +0.602964    -0.202798 
  H    +2.874494    +2.057758    +0.750240 
  H    +3.927631    -1.290499    +0.045741 
  H    +2.407999    +0.458113    -2.424697 
  H    -0.130769    -1.346301    +2.515131 
  H    -0.572420    -2.842013    -0.433085 
  H    -1.892199    +2.205938    +0.691691 
  H    +3.225888    +3.555256    +1.610872 
[FREQ] # Frequencies in cm^-1
 -2758.1784
  159.9593
  342.8266
  397.1541
  488.7186
  727.0288
 1003.0343
 1071.5349
 1253.2346
 1270.3028
 1347.2300
 1457.9681
 1582.1999
 1600.6245
 1665.4533
 1728.5213
 1758.2605
 1778.4317
 1815.1888
 3552.8471
 3619.7721
 3667.3716
 3764.0429
 4228.0733
[FR-NORM-COORD] # Displacements in bohr
vibration  1
      -0.047     -0.182     -0.100
      +0.001     +0.015     +0.009
      -0.001     +0.000     -0.001
      +0.183     +0.769     +0.441
      +0.035     +0.041     +0.039
      +0.013     +0.068     +0.006
      +0.001     -0.001     +0.002
      +0.006     -0.002     -0.001
      -0.002     -0.001     +0.000
      -0.073     -0.301     -0.173
vibration  2
      +0.048     -0.093     +0.109
      -0.041     -0.161     -0.229
      +0.104     +0.199     +0.190
      -0.209     +0.147     -0.179
      +0.040     +0.109     +0.310
      +0.160     -0.251     -0.020
      -0.034     -0.202     -0.091
      -0.041     +0.029     -0.209
      +0.036     -0.042     +0.209
      -0.391     +0.295     -0.363
vibration  3
      +0.122     +0.031     +0.127
      -0.022     +0.115     -0.080
      -0.199     -0.074     -0.075
      +0.220     +0.034     -0.069
      -0.031     -0.053     +0.092
      +0.102     -0.061     +0.020
      -0.044     -0.028     -0.034
      +0.051     +0.048     -0.079
      -0.408     -0.205     +0.464
      +0.556     +0.053     -0.256
vibration  4
      +0.107     +0.077     +0.157
      -0.025     +0.012     -0.222
      -0.312     -0.131     +0.251
      +0.119     +0.043     -0.009
      -0.021     -0.003     +0.151
      +0.162     -0.030     +0.034
      -0.010     -0.121     -0.082
      +0.026     +0.048     -0.169
      +0.324     +0.218     -0.552
      +0.358     +0.058     -0.144
vibration  5
      -0.357     +0.191     +0.170
      -0.103     -0.346     +0.134
      +0.378     +0.068     -0.141
      +0.007     +0.070     -0.005
      +0.010     +0.108     -0.183
      -0.308     +0.178     +0.076
      -0.115     -0.196     +0.026
      -0.004     -0.048     -0.078
      +0.178     -0.010     -0.023
      +0.316     +0.162     -0.300
vibration  6
      +0.262     -0.180     +0.166
      +0.017     +0.105     -0.013
      -0.150     -0.005     +0.009
      +0.144     -0.129     +0.152
      -0.002     -0.321     -0.411
      -0.092     +0.398     +0.154
      -0.047     -0.023     -0.010
      +0.007     +0.051     -0.047
      -0.062     +0.029     -0.040
      -0.310     +0.272     -0.361
vibration  7
      +0.005     -0.035     +0.020
      +0.115     +0.246     +0.249
      +0.020     -0.069     -0.050
      +0.134     +0.084     -0.160
      -0.017     -0.075     -0.105
      -0.338     -0.340     -0.079
      -0.167     -0.413     -0.001
      +0.163     +0.281     -0.405
      -0.158     +0.080     -0.119
      -0.111     -0.072     +0.141
vibration  8
      -0.482     -0.003     +0.079
      +0.147     +0.316     -0.192
      +0.309     -0.206     +0.077
      +0.011     -0.073     +0.097
      -0.464     -0.336     +0.149
      +0.103     +0.008     +0.034
      +0.188     +0.084     -0.065
      +0.124     +0.074     -0.045
      +0.011     -0.034     -0.000
      -0.052     +0.015     -0.089
vibration  9
      +0.112     +0.267     +0.018
      -0.114     -0.234     -0.060
      -0.089     +0.090     -0.006
      +0.391     +0.176     -0.084
      -0.255     -0.325     -0.103
      -0.049     -0.288     -0.092
      -0.164     +0.141     +0.021
      +0.280     -0.207     +0.132
      +0.284     -0.117     +0.129
      -0.127     +0.150     +0.164
vibration  10
      +0.161     +0.227     -0.283
      -0.420     -0.024     +0.290
      +0.252     -0.174     +0.002
      +0.169     +0.003     +0.024
      -0.158     -0.133     +0.073
      +0.417     +0.124     -0.073
      -0.050     -0.222     +0.058
      -0.345     +0.112     -0.076
      -0.090     +0.015     -0.061
      -0.052     +0.093     +0.023
vibration  11
      -0.114     +0.040     -0.122
      +0.293     -0.296     +0.319
      -0.310     +0.318     -0.198
      -0.001     -0.092     +0.087
      -0.169     -0.095     +0.118
      +0.241     +0.092     -0.012
      +0.381     -0.306     +0.050
      +0.250     -0.053     -0.044
      -0.064     +0.079     -0.022
      -0.018     -0.011     -0.069
vibration  12
      -0.024     -0.073     -0.193
      -0.106     +0.143     +0.146
      +0.008     -0.034     +0.036
      -0.111     -0.171     -0.007
      +0.043     +0.113     +0.117
      +0.218     +0.240     +0.010
      -0.506     +0.021     +0.055
      +0.568     -0.006     -0.102
      +0.231     -0.108     +0.094
      -0.022     -0.195     -0.147
vibration  13
      -0.185     -0.082     +0.137
      -0.065     +0.023     -0.047
      +0.012     -0.012     -0.016
      +0.615     -0.029     -0.484
      +0.139     +0.249     +0.109
      +0.052     +0.270     +0.122
      +0.205     -0.010     -0.025
      +0.005     -0.008     +0.005
      +0.028     -0.018     +0.011
      -0.225     -0.202     +0.018
vibration  14
      +0.105     -0.083     +0.112
      -0.062     +0.008     +0.027
      +0.005     +0.004     -0.009
      -0.430     +0.430     -0.559
      -0.124     -0.286     -0.158
      +0.110     +0.270     +0.104
      +0.078     -0.043     +0.000
      +0.067     -0.016     +0.010
      +0.012     -0.003     -0.000
      +0.121     -0.107     +0.158
vibration  15
      +0.112     -0.069     +0.030
      -0.502     +0.201     +0.053
      +0.034     -0.077     -0.074
      -0.088     -0.026     +0.146
      +0.157     +0.079     -0.106
      -0.071     -0.126     -0.020
      +0.600     -0.055     -0.028
      +0.305     +0.034     -0.102
      +0.261     -0.149     +0.103
      +0.046     +0.090     +0.014
vibration  16
      +0.113     +0.039     -0.047
      +0.202     +0.119     +0.122
      -0.209     -0.076     -0.167
      -0.039     -0.026     -0.024
      -0.126     -0.072     +0.261
      -0.247     +0.129     +0.016
      +0.005     -0.069     +0.020
      -0.396     +0.181     -0.051
      +0.558     -0.300     +0.239
      -0.010     -0.089     -0.051
vibration  17
      -0.316     -0.124     +0.084
      +0.206     +0.069     +0.086
      -0.104     -0.032     -0.070
      +0.042     +0.085     +0.011
      +0.185     +0.110     -0.469
      +0.520     -0.181     -0.007
      -0.081     +0.062     +0.034
      -0.150     +0.147     -0.125
      +0.238     -0.129     +0.107
      +0.039     +0.224     +0.141
vibration  18
      -0.066     -0.359     -0.222
      +0.031     +0.053     -0.001
      +0.001     +0.004     +0.009
      +0.110     +0.150     +0.033
      +0.006     +0.054     +0.290
      -0.148     +0.258     +0.017
      -0.067     -0.061     -0.012
      +0.096     -0.020     +0.033
      -0.017     +0.009     -0.005
      +0.138     +0.647     +0.381
vibration  19
      +0.037     -0.012     -0.032
      -0.021     -0.291     +0.125
      -0.000     +0.016     +0.017
      +0.009     +0.016     -0.020
      -0.043     -0.034     +0.094
      -0.064     +0.066     +0.007
      +0.095     +0.645     +0.145
      +0.013     +0.230     -0.606
      -0.070     +0.038     -0.029
      +0.006     +0.023     +0.017
vibration  20
      -0.002     +0.009     -0.004
      -0.028     -0.192     +0.146
      +0.002     +0.001     +0.002
      +0.003     +0.004     +0.000
      +0.020     -0.020     +0.008
      +0.004     +0.004     -0.006
      -0.028     +0.116     -0.757
      +0.104     +0.522     +0.263
      -0.006     +0.005     -0.005
      -0.000     -0.002     -0.001
vibration  21
      +0.162     -0.073     -0.149
      -0.007     +0.001     +0.023
      -0.001     +0.001     -0.000
      -0.002     -0.001     +0.001
      -0.519     +0.422     -0.168
      -0.004     -0.167     +0.662
      -0.004     +0.008     -0.052
      -0.006     -0.028     -0.013
      -0.000     -0.000     -0.000
      +0.004     +0.013     +0.008
vibration  22
      -0.013     +0.009     +0.002
      +0.044     +0.170     +0.262
      -0.002     -0.005     -0.003
      -0.003     -0.004     -0.001
      +0.044     -0.037     +0.013
      +0.003     +0.006     -0.022
      -0.016     +0.089     -0.568
      -0.136     -0.662     -0.329
      +0.012     +0.011     +0.009
      +0.000     -0.000     +0.000
vibration  23
      +0.144     -0.166     +0.236
      +0.000     +0.001     +0.008
      -0.001     +0.000     -0.000
      -0.000     +0.000     -0.001
      -0.498     +0.411     -0.155
      +0.006     +0.157     -0.655
      +0.003     +0.006     -0.028
      -0.002     -0.008     -0.005
      -0.000     +0.000     +0.001
      -0.000     -0.000     -0.000
vibration  24
      -0.000     -0.001     +0.000
      +0.014     -0.002     +0.010
      +0.034     +0.215     +0.110
      -0.001     -0.001     -0.000
      +0.001     -0.001     -0.000
      +0.000     +0.000     -0.001
      +0.001     -0.002     -0.008
      -0.003     -0.011     -0.006
      -0.182     -0.834     -0.459
      +0.000     +0.000     +0.000
