[Molden Format]
[FR-COORD] # Coordinates in bohr
  C    +2.480059    -0.449754    -0.178025 
  C    -0.051992    +0.760268    +0.594430 
  O    -2.239918    -0.499574    -0.338283 
  H    +2.584342    -0.657886    -2.216651 
  H    +4.041583    +0.726562    +0.443666 
  H    +2.692777    -2.307917    +0.674489 
  H    -0.139031    +1.115887    +2.635126 
  H    -0.141950    +2.954625    -0.416317 
  H    -2.182780    -2.189556    +0.472890 
  H    -0.216417    +4.589663    -1.182477 
[FREQ] # Frequencies in cm^-1
 -2800.5016
  207.0239
  248.0640
  393.3390
  435.9356
  478.7567
 1027.1885
 1061.9141
 1243.2318
 1299.4584
 1352.3915
 1484.3932
 1601.6923
 1623.8426
 1649.9777
 1727.1900
 1776.4776
 1824.2329
 1833.0232
 3562.3305
 3593.8912
 3738.0204
 3757.6261
 4195.2734
[FR-NORM-COORD] # Displacements in bohr
vibration  1
      -0.001     +0.016     -0.009
      +0.005     -0.189     +0.076
      +0.006     +0.018     -0.003
      +0.001     -0.001     -0.002
      +0.001     +0.001     +0.000
      -0.004     +0.001     +0.002
      -0.012     +0.074     -0.008
      -0.037     +0.807     -0.378
      -0.003     -0.001     -0.001
      +0.016     -0.358     +0.168
vibration  2
      +0.008     +0.018     -0.007
      +0.005     +0.069     -0.092
      +0.009     -0.089     +0.112
      +0.249     +0.472     -0.037
      +0.016     -0.266     +0.476
      -0.256     -0.214     -0.413
      +0.009     +0.078     -0.037
      -0.011     -0.014     -0.102
      -0.056     +0.055     +0.193
      -0.029     -0.056     -0.187
vibration  3
      -0.054     -0.054     +0.042
      +0.003     +0.086     -0.027
      -0.079     +0.069     +0.209
      +0.027     +0.025     +0.010
      +0.003     -0.073     +0.073
      -0.083     -0.040     -0.022
      +0.019     +0.075     -0.014
      -0.002     -0.003     -0.072
      +0.525     -0.325     -0.698
      -0.000     -0.046     -0.161
vibration  4
      -0.020     -0.218     +0.044
      +0.122     +0.122     -0.012
      +0.184     +0.129     -0.074
      -0.013     -0.119     +0.018
      +0.065     -0.150     -0.001
      -0.124     -0.060     +0.052
      +0.035     +0.023     -0.001
      -0.203     +0.043     +0.021
      +0.017     +0.043     +0.005
      -0.862     +0.040     +0.091
vibration  5
      -0.320     -0.089     -0.022
      -0.068     +0.373     -0.099
      +0.321     -0.327     -0.011
      -0.140     -0.078     -0.003
      +0.021     -0.161     -0.041
      -0.260     -0.034     +0.018
      -0.035     +0.142     -0.035
      +0.028     +0.162     +0.033
      +0.206     -0.022     +0.113
      +0.239     +0.313     +0.377
vibration  6
      +0.296     -0.032     +0.080
      +0.030     -0.065     -0.493
      -0.378     -0.003     +0.204
      +0.319     -0.075     +0.042
      -0.019     +0.062     +0.156
      +0.065     +0.031     +0.118
      +0.061     +0.040     -0.150
      -0.007     +0.045     -0.020
      +0.000     -0.022     +0.003
      -0.035     +0.266     +0.461
vibration  7
      +0.176     -0.125     +0.135
      -0.023     -0.003     +0.118
      -0.092     -0.021     -0.061
      -0.318     +0.221     -0.009
      +0.116     -0.000     -0.185
      +0.310     -0.145     -0.260
      -0.229     +0.560     -0.075
      +0.089     -0.169     -0.240
      -0.066     -0.030     -0.060
      -0.063     +0.087     +0.198
vibration  8
      -0.477     +0.005     +0.050
      +0.108     -0.326     -0.191
      +0.355     +0.185     +0.107
      +0.008     +0.123     +0.015
      -0.412     +0.283     +0.147
      +0.116     +0.036     +0.015
      +0.122     +0.149     -0.101
      +0.092     -0.192     -0.140
      -0.018     +0.024     -0.029
      -0.049     -0.052     +0.151
vibration  9
      +0.042     -0.425     -0.098
      -0.262     +0.272     +0.075
      +0.060     +0.010     -0.004
      +0.229     +0.082     -0.042
      -0.291     +0.235     +0.064
      +0.491     -0.098     -0.085
      -0.125     -0.125     +0.065
      +0.029     +0.211     +0.109
      +0.222     +0.068     +0.117
      -0.034     +0.115     -0.135
vibration  10
      +0.111     -0.044     -0.334
      -0.303     -0.000     +0.321
      +0.169     +0.043     -0.012
      +0.416     -0.224     -0.061
      -0.034     -0.039     +0.128
      -0.086     +0.076     +0.135
      +0.076     +0.407     +0.036
      -0.274     -0.168     -0.111
      -0.210     -0.052     -0.128
      +0.100     -0.020     +0.097
vibration  11
      -0.151     -0.023     -0.045
      +0.406     +0.211     +0.276
      -0.365     -0.264     -0.252
      +0.097     +0.022     -0.006
      -0.167     +0.099     +0.094
      +0.040     +0.040     +0.064
      +0.474     +0.212     +0.069
      +0.258     +0.056     +0.015
      -0.048     -0.058     -0.014
      -0.082     +0.034     -0.017
vibration  12
      -0.002     -0.101     +0.205
      +0.024     +0.054     -0.102
      +0.066     -0.025     +0.015
      -0.180     +0.132     +0.038
      -0.004     +0.041     -0.066
      +0.151     -0.087     -0.101
      +0.447     -0.081     +0.009
      -0.633     +0.122     -0.019
      -0.290     -0.088     -0.156
      +0.171     +0.222     -0.117
vibration  13
      -0.004     +0.016     -0.049
      -0.036     +0.017     +0.071
      +0.127     -0.076     +0.143
      +0.030     -0.013     -0.011
      -0.013     +0.003     +0.019
      -0.033     +0.023     +0.031
      -0.149     -0.255     +0.070
      +0.379     +0.111     -0.360
      -0.463     -0.161     -0.248
      -0.119     +0.479     -0.147
vibration  14
      -0.011     -0.028     -0.044
      +0.162     -0.074     -0.132
      +0.055     -0.066     +0.097
      -0.015     +0.008     -0.017
      -0.078     +0.061     +0.036
      -0.053     +0.009     +0.033
      -0.295     +0.357     -0.121
      +0.023     +0.298     +0.648
      -0.317     -0.111     -0.163
      -0.007     -0.006     -0.193
vibration  15
      +0.010     +0.085     +0.134
      -0.505     -0.052     -0.138
      +0.147     +0.021     +0.032
      +0.048     -0.078     +0.051
      +0.190     -0.129     -0.134
      +0.113     -0.059     -0.163
      +0.521     +0.102     -0.034
      +0.425     +0.084     +0.223
      -0.064     -0.011     -0.043
      -0.109     -0.108     -0.018
vibration  16
      +0.437     -0.152     -0.098
      -0.221     -0.015     +0.009
      +0.027     +0.021     -0.012
      -0.482     +0.114     -0.075
      -0.255     +0.326     +0.230
      -0.419     -0.018     +0.164
      +0.175     +0.030     +0.010
      +0.100     +0.012     +0.009
      +0.055     +0.021     +0.023
      -0.028     +0.010     -0.008
vibration  17
      -0.022     +0.157     -0.033
      -0.007     -0.447     +0.124
      -0.052     +0.084     -0.082
      -0.095     -0.256     +0.018
      +0.028     -0.112     +0.194
      +0.060     +0.009     -0.096
      +0.055     +0.196     -0.017
      -0.058     +0.165     +0.010
      +0.333     +0.118     +0.176
      -0.015     +0.547     -0.275
vibration  18
      -0.034     +0.029     -0.180
      -0.030     +0.099     -0.073
      +0.020     -0.015     +0.025
      -0.358     +0.023     -0.066
      +0.082     -0.410     +0.518
      +0.452     +0.219     +0.301
      +0.017     -0.045     -0.011
      +0.019     -0.023     +0.017
      -0.076     -0.025     -0.040
      +0.002     -0.121     +0.055
vibration  19
      +0.057     +0.155     +0.036
      +0.074     +0.187     -0.024
      -0.000     -0.037     +0.022
      -0.158     -0.634     +0.068
      -0.168     +0.136     +0.288
      +0.054     -0.195     -0.509
      -0.066     -0.080     +0.014
      -0.014     -0.051     -0.020
      -0.111     -0.042     -0.060
      +0.013     -0.166     +0.087
vibration  20
      -0.152     +0.092     +0.034
      +0.007     -0.001     +0.007
      +0.001     +0.000     +0.000
      +0.025     -0.051     -0.533
      +0.406     +0.311     +0.163
      +0.062     -0.564     +0.261
      +0.004     -0.009     -0.037
      +0.001     -0.003     +0.001
      -0.001     -0.001     +0.000
      +0.000     +0.001     -0.001
vibration  21
      +0.009     -0.008     -0.014
      -0.017     +0.054     +0.278
      +0.000     +0.000     -0.000
      +0.003     +0.002     +0.044
      -0.009     -0.002     -0.003
      -0.001     +0.010     -0.006
      +0.039     -0.168     -0.942
      -0.001     -0.002     -0.001
      -0.001     -0.009     +0.000
      -0.000     +0.010     -0.004
vibration  22
      -0.083     -0.251     +0.169
      +0.000     -0.000     +0.003
      +0.001     +0.001     -0.000
      +0.018     -0.046     -0.414
      +0.335     +0.251     +0.138
      -0.074     +0.659     -0.304
      +0.003     -0.003     -0.015
      -0.002     +0.004     -0.001
      +0.001     -0.001     +0.001
      -0.000     -0.000     +0.000
vibration  23
      +0.137     +0.126     +0.255
      -0.001     +0.002     +0.007
      -0.001     -0.000     -0.000
      +0.033     -0.065     -0.674
      -0.503     -0.383     -0.200
      +0.001     +0.014     -0.002
      +0.005     -0.007     -0.025
      -0.000     -0.000     -0.001
      -0.000     -0.000     +0.001
      -0.000     +0.000     -0.000
vibration  24
      -0.000     -0.001     -0.000
      -0.012     -0.001     -0.009
      +0.006     +0.223     -0.098
      -0.000     +0.000     +0.001
      -0.001     -0.000     +0.000
      +0.001     -0.001     -0.000
      -0.002     -0.002     +0.006
      +0.001     -0.004     +0.003
      +0.018     -0.877     +0.413
      -0.000     +0.000     -0.000
