[Molden Format]
[FR-COORD] # Coordinates in bohr
  C    +2.461609    +0.622455    -0.140138 
  C    +0.110335    -0.978729    +0.531394 
  O    -2.199559    +0.001587    -0.509551 
  H    +4.157591    -0.300219    +0.553960 
  H    +2.619621    +0.842193    -2.173760 
  H    +2.344302    +2.486878    +0.709165 
  H    +0.327480    -2.874070    -0.266826 
  H    -0.023064    -1.187380    +2.588442 
  H    -2.477815    +1.748116    +0.458005 
  H    -2.663236    +3.501380    +1.559342 
[FREQ] # Frequencies in cm^-1
 -2538.6698
  173.0786
  248.0092
  393.7620
  480.2503
  893.1041
  935.7923
 1064.2411
 1263.0223
 1271.2200
 1338.1606
 1510.5599
 1643.9127
 1685.9938
 1733.6862
 1805.6880
 1825.1491
 1836.7068
 1964.5448
 3562.4287
 3570.4513
 3679.5150
 3753.7761
 3758.4286
[FR-NORM-COORD] # Displacements in bohr
vibration  1
      +0.001     +0.000     -0.002
      +0.030     -0.002     +0.015
      -0.006     -0.031     -0.025
      -0.002     -0.005     -0.000
      -0.000     +0.000     -0.001
      -0.004     -0.003     +0.001
      -0.017     -0.001     -0.010
      -0.013     -0.003     -0.004
      -0.114     +0.667     +0.394
      +0.067     -0.524     -0.324
vibration  2
      +0.076     -0.117     -0.109
      -0.022     +0.100     +0.069
      +0.078     +0.139     -0.140
      -0.017     +0.087     +0.225
      +0.170     -0.318     -0.050
      -0.069     +0.085     -0.305
      -0.026     -0.006     +0.099
      -0.026     +0.113     +0.026
      -0.159     -0.117     +0.185
      -0.367     -0.343     +0.512
vibration  3
      +0.053     -0.080     -0.065
      -0.027     +0.156     +0.230
      +0.091     -0.023     -0.202
      +0.051     -0.269     -0.433
      -0.287     +0.285     -0.010
      +0.293     -0.149     +0.296
      -0.013     -0.008     +0.191
      -0.042     +0.177     +0.077
      -0.125     -0.061     +0.001
      -0.328     -0.148     +0.113
vibration  4
      +0.280     -0.087     +0.032
      +0.063     +0.080     -0.211
      -0.195     +0.003     +0.263
      +0.009     -0.103     +0.085
      +0.191     -0.024     +0.018
      +0.124     -0.026     +0.019
      -0.010     +0.061     -0.162
      +0.077     -0.092     -0.068
      -0.116     +0.016     +0.025
      -0.679     +0.183     -0.348
vibration  5
      -0.350     -0.019     -0.070
      +0.040     -0.358     +0.151
      +0.462     +0.301     +0.009
      +0.025     +0.177     -0.091
      -0.242     -0.024     -0.033
      -0.250     +0.003     -0.059
      -0.035     -0.076     -0.037
      +0.002     -0.167     +0.037
      +0.112     +0.060     +0.040
      -0.382     +0.129     -0.176
vibration  6
      -0.001     -0.007     -0.027
      +0.010     -0.043     -0.078
      -0.074     -0.045     +0.120
      -0.010     +0.025     +0.051
      +0.098     +0.102     +0.011
      -0.091     -0.047     +0.081
      -0.063     -0.066     +0.089
      +0.059     +0.119     -0.003
      +0.478     +0.418     -0.590
      -0.207     -0.198     +0.247
vibration  7
      -0.027     +0.056     +0.100
      -0.042     +0.166     +0.207
      +0.022     -0.082     -0.029
      -0.016     -0.112     -0.123
      -0.254     -0.311     -0.026
      +0.315     +0.154     -0.231
      +0.154     +0.252     -0.381
      -0.093     -0.449     +0.006
      +0.056     +0.118     -0.259
      -0.012     -0.092     +0.074
vibration  8
      +0.497     +0.109     +0.022
      -0.063     -0.331     +0.191
      -0.362     +0.110     -0.136
      +0.406     +0.356     -0.182
      -0.119     +0.039     -0.019
      -0.047     +0.072     -0.094
      -0.097     -0.107     +0.047
      -0.164     -0.118     +0.047
      -0.025     +0.048     -0.023
      -0.009     +0.038     +0.032
vibration  9
      +0.044     +0.424     -0.175
      -0.322     -0.369     +0.087
      +0.103     +0.012     +0.017
      -0.222     -0.228     +0.066
      +0.319     +0.038     -0.043
      +0.421     +0.149     -0.036
      +0.033     -0.139     +0.117
      -0.157     -0.038     +0.036
      +0.195     -0.029     +0.123
      -0.040     +0.009     -0.026
vibration  10
      +0.133     +0.004     -0.222
      -0.334     +0.140     +0.207
      +0.292     -0.129     +0.066
      +0.035     +0.100     +0.081
      +0.231     +0.233     -0.028
      -0.140     -0.080     +0.099
      -0.509     +0.110     -0.228
      +0.093     -0.226     +0.053
      -0.247     -0.033     -0.172
      +0.068     -0.087     -0.021
vibration  11
      -0.108     -0.005     -0.169
      +0.304     -0.165     +0.387
      -0.313     +0.179     -0.260
      -0.158     -0.102     +0.128
      +0.227     +0.099     -0.017
      -0.009     -0.077     +0.117
      +0.181     +0.030     -0.044
      +0.472     -0.208     +0.124
      -0.160     +0.071     -0.076
      +0.017     +0.060     +0.050
vibration  12
      +0.049     -0.185     -0.263
      -0.086     +0.160     +0.170
      -0.010     -0.023     +0.022
      +0.023     +0.086     +0.090
      +0.184     +0.225     -0.038
      -0.231     -0.166     +0.126
      +0.531     +0.164     -0.060
      -0.499     -0.144     +0.001
      +0.187     -0.011     +0.115
      -0.028     +0.026     +0.001
vibration  13
      +0.036     -0.123     +0.093
      -0.434     +0.113     +0.020
      +0.002     -0.057     -0.108
      +0.160     +0.167     -0.063
      -0.004     +0.098     +0.041
      +0.046     +0.030     -0.106
      +0.186     +0.107     -0.062
      +0.577     +0.045     +0.052
      +0.444     -0.123     +0.254
      -0.042     -0.061     -0.076
vibration  14
      +0.068     +0.094     -0.069
      +0.275     +0.148     +0.151
      -0.159     -0.133     -0.189
      -0.133     -0.142     +0.125
      -0.139     -0.097     -0.044
      -0.124     -0.045     +0.117
      -0.483     +0.045     -0.103
      -0.118     -0.083     +0.019
      +0.516     -0.074     +0.339
      -0.067     +0.093     +0.016
vibration  15
      -0.407     -0.200     +0.079
      +0.252     +0.058     +0.039
      -0.054     -0.038     -0.042
      +0.199     +0.349     -0.211
      +0.436     +0.159     +0.090
      +0.419     +0.044     -0.126
      -0.210     +0.022     -0.074
      -0.165     +0.020     -0.006
      +0.082     +0.001     +0.067
      -0.015     +0.043     +0.020
vibration  16
      -0.006     -0.079     +0.037
      +0.027     +0.242     -0.132
      -0.001     +0.004     -0.006
      -0.034     -0.049     +0.044
      -0.047     +0.238     +0.033
      -0.004     +0.084     -0.218
      -0.050     -0.205     +0.591
      +0.041     -0.624     -0.101
      +0.027     -0.008     +0.011
      -0.000     -0.012     -0.009
vibration  17
      +0.001     +0.107     +0.164
      -0.011     +0.036     +0.039
      -0.002     -0.014     -0.016
      +0.051     -0.367     -0.607
      +0.427     -0.150     +0.057
      -0.465     +0.079     -0.137
      +0.000     +0.016     +0.008
      +0.003     -0.038     +0.010
      +0.030     +0.004     +0.023
      -0.004     +0.018     +0.009
vibration  18
      +0.080     -0.134     +0.088
      +0.081     -0.113     +0.075
      -0.013     -0.014     -0.013
      -0.137     -0.255     +0.117
      -0.141     +0.580     +0.077
      -0.092     +0.222     -0.558
      -0.035     +0.061     -0.222
      -0.071     +0.220     +0.041
      -0.023     +0.034     +0.003
      -0.004     +0.046     +0.030
vibration  19
      -0.011     -0.002     -0.004
      +0.131     -0.024     +0.047
      -0.123     +0.302     +0.119
      -0.022     -0.033     -0.001
      +0.012     +0.022     +0.003
      -0.018     +0.007     -0.019
      -0.037     +0.005     -0.023
      -0.066     +0.006     +0.013
      +0.144     -0.513     -0.212
      +0.062     -0.607     -0.386
vibration  20
      +0.008     -0.003     +0.004
      +0.000     +0.185     -0.157
      -0.001     -0.001     -0.002
      -0.041     +0.026     -0.019
      -0.005     -0.006     +0.026
      -0.001     -0.032     -0.012
      +0.068     -0.540     -0.232
      -0.048     -0.070     +0.761
      +0.004     +0.001     +0.006
      +0.000     -0.001     +0.000
vibration  21
      -0.146     -0.100     +0.038
      +0.007     +0.018     -0.013
      +0.001     -0.000     +0.000
      +0.465     -0.257     +0.192
      +0.040     +0.056     -0.553
      -0.037     +0.523     +0.241
      +0.006     -0.035     -0.016
      -0.001     -0.002     +0.048
      -0.000     +0.000     +0.001
      +0.000     -0.000     -0.000
vibration  22
      +0.004     -0.015     -0.022
      -0.035     +0.187     +0.252
      -0.002     +0.001     -0.001
      -0.007     +0.003     -0.005
      -0.000     -0.004     +0.051
      -0.008     +0.048     +0.024
      +0.082     -0.688     -0.292
      +0.038     +0.055     -0.570
      +0.008     -0.007     -0.002
      +0.000     -0.001     -0.001
vibration  23
      -0.160     +0.264     +0.065
      -0.002     +0.012     +0.011
      +0.001     +0.000     +0.000
      +0.498     -0.272     +0.208
      +0.007     +0.017     -0.129
      +0.043     -0.651     -0.300
      +0.002     -0.047     -0.018
      +0.003     +0.002     -0.023
      +0.002     -0.002     -0.001
      -0.001     +0.000     +0.000
vibration  24
      +0.095     -0.017     +0.301
      -0.002     +0.007     +0.015
      -0.001     +0.000     -0.000
      -0.400     +0.222     -0.162
      +0.057     +0.080     -0.763
      +0.018     -0.241     -0.107
      +0.001     -0.030     -0.013
      +0.007     +0.007     -0.044
      +0.000     -0.001     -0.000
      -0.000     +0.000     -0.000
