[Molden Format]
[FR-COORD] # Coordinates in bohr
  C    -0.602536    +0.010813    -0.568399 
  O    -0.712392    -0.085742    +2.092058 
  O    +1.367030    -0.029738    -1.738353 
  H    -0.731423    +1.705160    +2.641931 
  H    -2.483854    -0.001168    -1.487650 
[FREQ] # Frequencies in cm^-1
 -462.1631
  675.0724
  994.1807
 1256.9502
 1523.9959
 1601.2501
 2111.8124
 3532.3599
 4208.9268
[FR-NORM-COORD] # Displacements in bohr
vibration  1
      -0.008     -0.160     -0.014
      -0.247     +0.046     -0.012
      +0.025     +0.152     +0.021
      +0.909     +0.012     +0.024
      +0.003     -0.246     -0.009
vibration  2
      +0.440     -0.015     +0.218
      -0.434     +0.005     +0.385
      +0.050     +0.002     -0.619
      -0.095     +0.012     +0.073
      +0.103     +0.009     +0.103
vibration  3
      +0.017     +0.524     +0.022
      +0.007     -0.044     -0.099
      -0.004     -0.194     -0.015
      -0.074     -0.139     +0.360
      +0.005     -0.721     +0.019
vibration  4
      -0.279     +0.082     -0.578
      +0.053     -0.050     +0.652
      +0.190     -0.020     -0.075
      +0.009     +0.055     +0.015
      -0.014     -0.057     -0.318
vibration  5
      +0.060     +0.326     +0.032
      -0.028     -0.242     +0.088
      -0.015     -0.047     +0.038
      +0.038     +0.226     -0.822
      -0.075     -0.199     +0.210
vibration  6
      -0.134     -0.056     -0.249
      -0.062     +0.042     +0.015
      +0.298     +0.005     -0.031
      -0.024     -0.039     +0.156
      -0.455     +0.046     +0.765
vibration  7
      +0.594     -0.026     -0.506
      -0.020     +0.013     +0.073
      -0.506     +0.012     +0.308
      -0.006     -0.010     +0.072
      +0.054     +0.005     +0.159
vibration  8
      +0.267     +0.002     +0.112
      +0.001     +0.000     -0.003
      -0.017     +0.000     +0.011
      +0.002     -0.002     -0.003
      -0.860     -0.007     -0.420
vibration  9
      -0.001     +0.005     -0.012
      -0.003     +0.226     +0.089
      +0.001     -0.000     -0.002
      +0.010     -0.920     -0.308
      +0.002     +0.000     -0.002
