[Molden Format]
[FR-COORD] # Coordinates in bohr
  C    -0.092360    +0.808355    +0.000000 
  O    -1.814432    -1.181474    +0.000000 
  O    +2.165377    +0.428761    +0.000000 
  H    -3.505275    -0.389840    -0.000000 
  H    -0.964768    +2.710994    -0.000000 
[FREQ] # Frequencies in cm^-1
  365.8086
  659.1907
 1056.0692
 1273.5338
 1557.6853
 1617.0529
 2152.1726
 3523.9176
 4271.7721
[FR-NORM-COORD] # Displacements in bohr
vibration  1
      +0.000     +0.000     -0.164
      -0.000     +0.000     -0.216
      -0.000     -0.000     +0.170
      -0.000     +0.000     +0.930
      +0.000     +0.000     -0.181
vibration  2
      +0.179     -0.454     -0.000
      -0.561     -0.076     +0.000
      +0.409     +0.447     -0.000
      -0.026     +0.230     +0.000
      +0.015     -0.144     -0.000
vibration  3
      +0.000     +0.000     -0.612
      -0.000     -0.000     +0.139
      +0.000     +0.000     +0.193
      -0.000     -0.000     +0.036
      +0.000     +0.000     +0.754
vibration  4
      -0.146     -0.585     -0.000
      +0.377     +0.476     +0.000
      -0.227     +0.047     +0.000
      +0.162     +0.213     +0.000
      -0.256     -0.277     +0.000
vibration  5
      -0.102     -0.223     +0.000
      -0.030     +0.349     -0.000
      +0.189     +0.040     -0.000
      -0.393     -0.783     -0.000
      +0.112     +0.002     -0.000
vibration  6
      -0.030     -0.273     -0.000
      +0.104     -0.027     -0.000
      -0.304     +0.167     +0.000
      +0.069     +0.086     -0.000
      +0.831     +0.299     -0.000
vibration  7
      +0.783     -0.007     -0.000
      -0.093     +0.007     +0.000
      -0.537     +0.088     -0.000
      -0.106     -0.178     +0.000
      -0.086     -0.176     +0.000
vibration  8
      +0.135     -0.258     +0.000
      -0.000     +0.005     +0.000
      -0.020     +0.002     -0.000
      +0.013     -0.008     +0.000
      -0.400     +0.869     +0.000
vibration  9
      -0.002     -0.019     +0.000
      +0.229     -0.087     -0.000
      -0.002     +0.001     +0.000
      -0.883     +0.400     -0.000
      -0.010     +0.008     -0.000
