[Molden Format]
[FR-COORD] # Coordinates in bohr
  N    +0.000000    -0.000000    +0.000000 
  H    +0.000000    +1.853361    +0.000000 
  H    +1.605058    -0.926681    -0.000000 
  H    -1.605058    -0.926681    +0.000000 
[FREQ] # Frequencies in cm^-1
 -961.5854
 1588.6376
 1588.6376
 2893.9409
 2914.1823
 2914.1823
[FR-NORM-COORD] # Displacements in bohr
vibration  1
      -0.000     -0.000     -0.421
      -0.000     +0.000     +0.524
      +0.000     +0.000     +0.524
      -0.000     -0.000     +0.524
vibration  2
      +0.000     +0.300     -0.000
      -0.000     +0.034     +0.000
      -0.352     -0.575     +0.000
      +0.352     -0.575     -0.000
vibration  3
      -0.300     +0.000     +0.000
      +0.778     +0.000     +0.000
      +0.169     +0.351     +0.000
      +0.169     -0.352     +0.000
vibration  4
      +0.000     +0.000     -0.000
      +0.000     -0.577     +0.000
      -0.500     +0.289     +0.000
      +0.500     +0.289     +0.000
vibration  5
      +0.000     +0.296     +0.000
      +0.000     -0.779     -0.000
      +0.356     -0.163     +0.000
      -0.356     -0.163     +0.000
vibration  6
      -0.296     +0.000     +0.000
      -0.043     -0.000     -0.000
      +0.573     -0.356     -0.000
      +0.573     +0.356     -0.000
