[Molden Format]
[FR-COORD] # Coordinates in bohr
  C    -0.040606    +0.840377    -0.000000 
  O    -2.017357    -0.877069    +0.000000 
  O    +2.171650    +0.231702    -0.000000 
  H    -1.190456    -2.556042    +0.000000 
  H    -0.774800    +2.792249    -0.000000 
[FREQ] # Frequencies in cm^-1
  601.1341
  634.0130
 1095.9223
 1249.5262
 1565.4892
 1639.3387
 2117.0161
 3589.4566
 4246.7588
[FR-NORM-COORD] # Displacements in bohr
vibration  1
      +0.000     -0.000     +0.300
      -0.000     +0.000     -0.334
      +0.000     +0.000     -0.175
      -0.000     -0.000     +0.868
      -0.000     -0.000     +0.122
vibration  2
      +0.139     -0.452     -0.000
      -0.472     +0.051     +0.000
      +0.449     +0.407     +0.000
      -0.385     -0.120     -0.000
      -0.007     -0.144     -0.000
vibration  3
      +0.000     -0.000     -0.567
      -0.000     +0.000     +0.090
      +0.000     +0.000     +0.166
      -0.000     -0.000     +0.153
      -0.000     -0.000     +0.787
vibration  4
      -0.179     -0.451     +0.000
      +0.526     +0.437     -0.000
      -0.223     +0.029     -0.000
      -0.238     -0.050     -0.000
      -0.353     -0.249     -0.000
vibration  5
      +0.141     +0.470     -0.000
      -0.051     -0.132     +0.000
      +0.190     -0.197     -0.000
      -0.326     -0.184     -0.000
      -0.712     -0.128     +0.000
vibration  6
      -0.106     -0.164     +0.000
      -0.234     +0.161     +0.000
      +0.265     -0.065     -0.000
      +0.668     +0.379     -0.000
      -0.422     -0.199     -0.000
vibration  7
      +0.771     -0.092     +0.000
      -0.133     -0.028     +0.000
      -0.538     +0.143     -0.000
      +0.127     +0.054     -0.000
      -0.115     -0.191     -0.000
vibration  8
      +0.119     -0.273     -0.000
      -0.001     +0.007     +0.000
      -0.023     +0.006     -0.000
      +0.019     -0.005     -0.000
      -0.334     +0.894     +0.000
vibration  9
      -0.015     +0.001     -0.000
      -0.091     +0.224     +0.000
      +0.000     -0.002     -0.000
      +0.410     -0.879     -0.000
      +0.005     -0.011     +0.000
