[Molden Format]
[FR-COORD] # Coordinates in bohr
  C    +0.084980    +1.086008    -0.000093 
  C    +2.364762    -0.727657    -0.000103 
  H    +4.117981    +0.338224    +0.000152 
  H    +2.320690    -1.925461    +1.664811 
  H    +2.320982    -1.925143    -1.665254 
  H    +0.178922    +2.312793    +1.669339 
  H    +0.178684    +2.312527    -1.669731 
  O    -2.188138    -0.394540    +0.000198 
  H    -3.558581    +0.881891    -0.000124 
[FREQ] # Frequencies in cm^-1
  225.0285
  357.5818
  438.5425
  952.1044
 1076.6981
 1227.6423
 1345.4488
 1351.0376
 1511.0328
 1574.9087
 1709.2052
 1790.4737
 1819.9527
 1826.5105
 1850.9888
 3539.5329
 3573.9453
 3650.6582
 3758.6160
 3760.8065
 4226.6298
[FR-NORM-COORD] # Displacements in bohr
vibration  1
      +0.000     +0.000     +0.228
      -0.000     +0.000     +0.001
      +0.000     +0.000     -0.549
      +0.329     +0.318     +0.237
      -0.330     -0.318     +0.237
      -0.026     -0.082     +0.127
      +0.026     +0.082     +0.127
      -0.000     -0.000     -0.255
      +0.000     +0.000     +0.049
vibration  2
      +0.000     -0.000     +0.139
      +0.000     -0.000     -0.099
      +0.000     -0.000     -0.081
      +0.057     -0.012     -0.036
      -0.057     +0.012     -0.036
      +0.011     -0.008     +0.049
      -0.011     +0.008     +0.049
      -0.000     +0.000     +0.218
      +0.000     -0.000     -0.950
vibration  3
      -0.011     -0.407     +0.000
      +0.443     +0.065     -0.000
      -0.002     +0.237     -0.000
      +0.290     +0.019     +0.005
      +0.290     +0.019     -0.005
      +0.025     -0.110     -0.007
      +0.025     -0.110     +0.007
      -0.534     +0.229     +0.000
      +0.009     +0.212     +0.000
vibration  4
      -0.000     -0.000     -0.244
      -0.000     +0.000     -0.139
      -0.000     +0.000     +0.173
      -0.301     +0.296     +0.166
      +0.301     -0.296     +0.166
      +0.168     -0.399     +0.215
      -0.168     +0.399     +0.215
      -0.000     +0.000     +0.106
      -0.000     -0.000     -0.035
vibration  5
      -0.046     +0.373     -0.000
      +0.499     -0.091     -0.000
      +0.397     -0.429     +0.000
      -0.099     -0.068     -0.029
      -0.099     -0.068     +0.029
      -0.143     +0.124     +0.000
      -0.143     +0.124     -0.000
      -0.340     -0.149     +0.000
      -0.121     -0.064     +0.000
vibration  6
      +0.346     -0.331     +0.000
      -0.081     +0.461     -0.000
      +0.184     -0.219     +0.000
      -0.366     +0.124     -0.024
      -0.366     +0.124     +0.024
      +0.031     -0.104     -0.002
      +0.031     -0.104     +0.002
      -0.160     -0.129     +0.000
      +0.211     +0.245     -0.000
vibration  7
      -0.001     -0.000     +0.449
      +0.000     -0.000     -0.249
      +0.000     -0.000     +0.141
      -0.197     +0.206     +0.071
      +0.197     -0.206     +0.071
      +0.363     +0.329     -0.125
      -0.364     -0.329     -0.125
      +0.001     +0.001     -0.180
      +0.000     +0.000     -0.007
vibration  8
      -0.423     -0.287     -0.001
      +0.142     -0.005     +0.000
      +0.125     -0.138     -0.000
      -0.060     -0.035     -0.023
      -0.061     -0.034     +0.023
      -0.417     -0.057     +0.000
      -0.415     -0.056     +0.000
      +0.397     +0.289     +0.000
      +0.219     +0.177     -0.000
vibration  9
      +0.000     -0.000     -0.170
      +0.000     +0.000     +0.317
      +0.000     -0.000     -0.109
      +0.197     -0.216     -0.052
      -0.197     +0.216     -0.052
      +0.569     -0.123     +0.008
      -0.569     +0.123     +0.008
      -0.000     -0.000     -0.074
      -0.000     -0.000     -0.016
vibration  10
      +0.334     +0.241     -0.000
      -0.140     -0.182     +0.000
      -0.161     +0.143     -0.000
      +0.138     +0.011     +0.053
      +0.138     +0.011     -0.053
      -0.326     +0.134     -0.019
      -0.326     +0.134     +0.019
      -0.135     -0.268     +0.000
      +0.405     +0.429     -0.000
vibration  11
      -0.171     +0.044     -0.000
      -0.304     +0.257     -0.000
      +0.228     -0.444     +0.000
      +0.390     -0.174     -0.165
      +0.390     -0.174     +0.165
      +0.168     -0.029     +0.017
      +0.168     -0.029     -0.017
      +0.025     -0.094     +0.000
      +0.198     +0.188     -0.000
vibration  12
      +0.458     -0.139     +0.000
      -0.252     +0.099     -0.000
      +0.077     -0.220     +0.000
      +0.209     +0.055     +0.022
      +0.209     +0.055     -0.022
      -0.336     -0.071     +0.044
      -0.336     -0.071     -0.044
      -0.039     +0.188     -0.000
      -0.378     -0.360     +0.000
vibration  13
      +0.000     +0.000     +0.046
      -0.000     -0.000     +0.195
      +0.000     +0.000     -0.716
      -0.453     -0.125     -0.052
      +0.453     +0.125     -0.051
      -0.007     +0.022     +0.002
      +0.007     -0.022     +0.002
      -0.000     +0.000     -0.005
      -0.000     -0.000     -0.001
vibration  14
      -0.143     +0.152     -0.000
      -0.025     -0.179     -0.000
      +0.099     -0.213     +0.000
      +0.094     +0.429     +0.345
      +0.094     +0.429     -0.345
      +0.071     -0.258     +0.209
      +0.071     -0.258     -0.209
      +0.017     -0.029     +0.000
      +0.082     +0.080     -0.000
vibration  15
      -0.070     -0.286     +0.000
      -0.064     -0.059     +0.000
      +0.081     -0.180     -0.000
      +0.079     +0.239     +0.186
      +0.079     +0.239     -0.186
      +0.073     +0.432     -0.378
      +0.073     +0.432     +0.378
      +0.021     +0.012     -0.000
      -0.009     -0.020     +0.000
vibration  16
      +0.012     +0.239     -0.000
      -0.003     -0.008     -0.000
      +0.025     +0.020     +0.000
      +0.003     -0.010     +0.008
      +0.003     -0.010     -0.008
      -0.034     -0.399     -0.557
      -0.034     -0.399     +0.557
      +0.004     -0.002     +0.000
      -0.010     +0.009     -0.000
vibration  17
      -0.008     +0.015     -0.000
      +0.144     -0.110     +0.000
      -0.491     -0.302     -0.000
      +0.015     +0.327     -0.458
      +0.015     +0.327     +0.458
      -0.003     -0.011     -0.018
      -0.003     -0.011     +0.018
      -0.001     -0.000     +0.000
      -0.000     +0.001     -0.000
vibration  18
      +0.000     +0.000     +0.317
      +0.000     +0.000     -0.020
      +0.000     +0.000     -0.002
      -0.006     -0.020     +0.031
      +0.006     +0.020     +0.031
      -0.028     -0.395     -0.540
      +0.028     +0.395     -0.540
      -0.000     +0.000     -0.000
      +0.000     -0.000     -0.004
vibration  19
      -0.000     -0.004     +0.000
      -0.195     -0.249     +0.000
      +0.654     +0.401     +0.000
      +0.008     +0.227     -0.323
      +0.007     +0.226     +0.322
      -0.001     +0.009     +0.008
      -0.001     +0.009     -0.008
      +0.001     -0.000     -0.000
      +0.003     -0.001     -0.000
vibration  20
      -0.000     -0.000     -0.016
      -0.000     -0.000     -0.316
      +0.000     +0.000     -0.004
      -0.018     -0.391     +0.543
      +0.018     +0.391     +0.544
      -0.003     +0.024     +0.030
      +0.003     -0.024     +0.030
      +0.000     -0.000     +0.000
      +0.000     +0.000     +0.000
vibration  21
      +0.009     +0.016     -0.000
      +0.001     -0.001     -0.000
      -0.002     -0.001     +0.000
      +0.001     -0.001     +0.001
      +0.001     -0.001     -0.001
      +0.003     -0.004     -0.006
      +0.003     -0.004     +0.006
      -0.190     +0.153     -0.000
      +0.717     -0.652     +0.000
