[Molden Format]
[FR-COORD] # Coordinates in bohr
  C    +0.161092    +1.067145    -0.000090 
  C    +2.440874    -0.746520    -0.000100 
  H    +4.194093    +0.319361    +0.000155 
  H    +2.396802    -1.944324    +1.664814 
  H    +2.397094    -1.944006    -1.665251 
  H    +0.255034    +2.293930    +1.669342 
  H    +0.254796    +2.293664    -1.669728 
  O    -2.112026    -0.413403    +0.000201 
  H    -3.482469    +0.863028    -0.000121 
[FREQ] # Frequencies in cm^-1
  224.4994
  265.1865
  429.2631
  951.8338
 1040.6826
 1122.9431
 1298.0152
 1345.4335
 1427.9485
 1510.9351
 1681.3193
 1744.4004
 1819.9523
 1825.3843
 1850.8769
 3079.1612
 3539.8054
 3573.9461
 3650.6444
 3758.6198
 3760.8065
[FR-NORM-COORD] # Displacements in bohr
vibration  1
      +0.000     -0.000     +0.207
      -0.000     +0.000     +0.016
      +0.000     +0.000     -0.537
      +0.321     +0.318     +0.241
      -0.321     -0.318     +0.241
      -0.029     -0.079     +0.119
      +0.029     +0.079     +0.119
      -0.000     -0.000     -0.288
      +0.000     +0.000     +0.135
vibration  2
      +0.000     +0.000     +0.200
      -0.000     -0.000     -0.134
      +0.000     -0.000     -0.150
      +0.097     +0.014     -0.026
      -0.097     -0.014     -0.026
      +0.024     -0.028     +0.080
      -0.024     +0.028     +0.080
      -0.000     +0.000     +0.273
      +0.000     -0.000     -0.900
vibration  3
      -0.023     -0.414     +0.000
      +0.438     +0.077     -0.000
      -0.003     +0.240     -0.000
      +0.288     +0.023     +0.005
      +0.288     +0.023     -0.005
      +0.015     -0.112     -0.007
      +0.015     -0.112     +0.007
      -0.518     +0.175     +0.000
      +0.019     +0.284     -0.000
vibration  4
      -0.000     +0.000     +0.245
      -0.000     +0.000     +0.138
      +0.000     -0.000     -0.173
      +0.301     -0.296     -0.166
      -0.301     +0.296     -0.166
      -0.168     +0.399     -0.215
      +0.168     -0.399     -0.215
      +0.000     -0.000     -0.105
      +0.000     +0.000     +0.023
vibration  5
      -0.035     +0.376     -0.000
      +0.458     -0.212     +0.000
      +0.261     -0.260     -0.000
      +0.040     -0.088     -0.014
      +0.040     -0.088     +0.014
      -0.021     +0.116     +0.001
      -0.021     +0.116     -0.001
      -0.279     +0.037     -0.000
      -0.460     -0.359     +0.000
vibration  6
      +0.050     +0.043     +0.000
      +0.219     +0.206     -0.000
      +0.343     -0.399     +0.000
      -0.275     +0.025     -0.033
      -0.275     +0.025     +0.033
      -0.198     +0.028     -0.002
      -0.198     +0.028     +0.002
      -0.208     -0.277     +0.000
      +0.356     +0.382     -0.000
vibration  7
      -0.519     +0.126     +0.000
      +0.145     -0.326     -0.000
      -0.024     +0.023     +0.000
      +0.207     -0.111     +0.002
      +0.207     -0.111     -0.001
      -0.361     +0.069     -0.001
      -0.361     +0.069     +0.001
      +0.320     +0.132     -0.000
      +0.246     +0.161     -0.000
vibration  8
      -0.000     -0.000     -0.449
      +0.000     -0.000     +0.249
      +0.000     -0.000     -0.141
      +0.197     -0.206     -0.071
      -0.197     +0.206     -0.071
      -0.364     -0.329     +0.125
      +0.363     +0.329     +0.125
      +0.000     +0.000     +0.180
      +0.000     +0.000     +0.005
vibration  9
      +0.219     +0.501     -0.000
      -0.132     -0.230     +0.000
      -0.188     +0.183     -0.000
      +0.230     -0.030     +0.037
      +0.230     -0.030     -0.037
      +0.118     +0.157     -0.007
      +0.118     +0.157     +0.007
      -0.283     -0.430     +0.000
      +0.224     +0.241     -0.000
vibration  10
      +0.000     +0.000     -0.170
      -0.000     +0.000     +0.317
      +0.000     -0.000     -0.109
      +0.197     -0.216     -0.052
      -0.197     +0.216     -0.052
      +0.569     -0.123     +0.008
      -0.569     +0.123     +0.008
      -0.000     -0.000     -0.074
      +0.000     +0.000     -0.011
vibration  11
      -0.470     +0.042     +0.000
      -0.086     +0.211     -0.000
      +0.216     -0.329     +0.000
      +0.194     -0.145     -0.141
      +0.194     -0.145     +0.141
      +0.435     -0.062     +0.022
      +0.435     -0.062     -0.022
      +0.068     -0.058     +0.000
      +0.121     +0.071     -0.000
vibration  12
      +0.364     -0.082     -0.000
      -0.395     +0.209     -0.000
      +0.147     -0.373     +0.000
      +0.387     -0.083     -0.092
      +0.387     -0.083     +0.092
      -0.275     -0.018     +0.015
      -0.275     -0.018     -0.014
      -0.032     +0.057     -0.000
      -0.096     -0.063     +0.000
vibration  13
      +0.000     +0.000     +0.046
      -0.000     -0.000     +0.195
      +0.000     +0.000     -0.716
      -0.453     -0.125     -0.052
      +0.453     +0.125     -0.051
      -0.007     +0.022     +0.002
      +0.007     -0.022     +0.002
      -0.000     +0.000     -0.005
      -0.000     -0.000     -0.001
vibration  14
      +0.079     -0.131     +0.000
      +0.051     +0.166     +0.000
      -0.105     +0.233     -0.000
      -0.113     -0.433     -0.346
      -0.113     -0.433     +0.346
      -0.026     +0.270     -0.216
      -0.026     +0.270     +0.216
      -0.012     -0.004     +0.000
      -0.011     -0.011     +0.000
vibration  15
      -0.078     -0.281     +0.000
      -0.061     -0.062     +0.000
      +0.081     -0.180     -0.000
      +0.078     +0.242     +0.189
      +0.078     +0.242     -0.189
      +0.079     +0.431     -0.376
      +0.079     +0.431     +0.376
      +0.020     +0.009     -0.000
      +0.006     -0.012     +0.000
vibration  16
      +0.022     +0.013     -0.000
      +0.001     -0.001     +0.000
      +0.002     +0.001     +0.000
      +0.001     +0.000     -0.000
      +0.001     +0.000     +0.000
      +0.002     +0.008     +0.013
      +0.002     +0.008     -0.013
      -0.266     +0.211     -0.000
      +0.691     -0.637     +0.000
vibration  17
      -0.013     -0.240     +0.000
      +0.003     +0.008     +0.000
      -0.026     -0.020     -0.000
      -0.003     +0.010     -0.008
      -0.003     +0.010     +0.008
      +0.034     +0.399     +0.557
      +0.034     +0.399     -0.557
      +0.003     -0.004     +0.000
      -0.012     +0.011     -0.000
vibration  18
      +0.008     -0.015     +0.000
      -0.144     +0.110     -0.000
      +0.491     +0.302     +0.000
      -0.015     -0.327     +0.458
      -0.015     -0.327     -0.458
      +0.003     +0.011     +0.018
      +0.003     +0.011     -0.018
      +0.001     +0.000     -0.000
      -0.001     +0.000     -0.000
vibration  19
      -0.000     -0.000     -0.317
      -0.000     -0.000     +0.020
      -0.000     -0.000     +0.002
      +0.006     +0.020     -0.031
      -0.006     -0.020     -0.031
      +0.028     +0.395     +0.540
      -0.028     -0.395     +0.540
      -0.000     -0.000     +0.000
      +0.000     -0.000     +0.003
vibration  20
      +0.000     +0.004     -0.000
      +0.195     +0.249     -0.000
      -0.654     -0.401     -0.000
      -0.008     -0.227     +0.323
      -0.007     -0.226     -0.322
      +0.001     -0.009     -0.008
      +0.001     -0.009     +0.009
      -0.002     +0.001     -0.000
      +0.000     -0.002     +0.000
vibration  21
      +0.000     +0.000     +0.016
      +0.000     +0.000     +0.316
      -0.000     -0.000     +0.004
      +0.018     +0.391     -0.543
      -0.018     -0.391     -0.544
      +0.003     -0.024     -0.030
      -0.003     +0.024     -0.030
      -0.000     +0.000     -0.000
      -0.000     -0.000     -0.000
