[Molden Format]
[FR-COORD] # Coordinates in bohr
  C    -0.094654    +1.064080    -0.000080 
  C    +2.185128    -0.749585    -0.000090 
  H    +3.938347    +0.316296    +0.000165 
  H    +2.141056    -1.947389    +1.664824 
  H    +2.141348    -1.947071    -1.665241 
  H    -0.000712    +2.290865    +1.669352 
  H    -0.000950    +2.290599    -1.669718 
  O    -2.367772    -0.416468    +0.000211 
  H    -3.738215    +0.859963    -0.000111 
[FREQ] # Frequencies in cm^-1
  166.2387
  355.0255
  393.6540
  697.0817
  874.9550
 1032.8437
 1037.0556
 1128.3258
 1159.0536
 1309.5383
 1315.5839
 1324.0719
 1403.9195
 1484.8728
 1712.5341
 2570.5166
 2587.6066
 2714.0897
 2793.3380
 2794.6993
 4226.5534
[FR-NORM-COORD] # Displacements in bohr
vibration  1
      -0.000     -0.000     -0.207
      +0.000     -0.000     -0.017
      -0.000     -0.000     +0.526
      -0.325     -0.300     -0.230
      +0.325     +0.300     -0.230
      +0.047     +0.120     -0.176
      -0.047     -0.120     -0.176
      +0.000     +0.000     +0.296
      -0.000     -0.000     -0.000
vibration  2
      -0.000     +0.000     -0.112
      -0.000     +0.000     +0.061
      -0.000     -0.000     +0.067
      -0.057     +0.032     +0.047
      +0.056     -0.032     +0.047
      -0.011     -0.009     -0.044
      +0.011     +0.009     -0.044
      +0.000     -0.000     -0.222
      -0.000     +0.000     +0.955
vibration  3
      +0.026     +0.362     -0.000
      -0.321     +0.006     +0.000
      +0.035     -0.279     +0.000
      -0.352     +0.001     -0.008
      -0.352     +0.000     +0.008
      -0.045     +0.145     +0.007
      -0.045     +0.145     -0.007
      +0.524     -0.270     -0.000
      -0.002     -0.212     -0.000
vibration  4
      +0.000     +0.000     +0.235
      +0.000     -0.000     +0.185
      +0.000     -0.000     -0.147
      +0.328     -0.312     -0.139
      -0.329     +0.312     -0.139
      -0.222     +0.369     -0.162
      +0.222     -0.369     -0.162
      +0.000     -0.000     -0.113
      +0.000     +0.000     +0.060
vibration  5
      -0.048     +0.109     +0.000
      +0.441     +0.082     -0.000
      +0.524     -0.498     -0.000
      -0.059     -0.025     -0.043
      -0.059     -0.025     +0.043
      -0.275     +0.084     -0.010
      -0.275     +0.084     +0.010
      -0.283     -0.042     +0.000
      -0.027     +0.042     +0.000
vibration  6
      +0.213     -0.328     +0.000
      +0.030     +0.378     -0.000
      +0.123     -0.024     +0.000
      -0.395     +0.249     +0.035
      -0.395     +0.249     -0.035
      +0.203     -0.236     +0.042
      +0.202     -0.236     -0.042
      -0.143     -0.077     -0.000
      +0.101     +0.131     -0.000
vibration  7
      +0.000     -0.000     -0.340
      +0.000     +0.000     +0.023
      +0.000     -0.000     -0.058
      +0.017     -0.032     -0.016
      -0.017     +0.032     -0.016
      -0.584     -0.245     +0.055
      +0.584     +0.245     +0.055
      -0.000     -0.000     +0.263
      -0.000     +0.000     +0.017
vibration  8
      +0.029     -0.274     +0.000
      -0.017     -0.035     -0.000
      -0.085     +0.102     +0.000
      -0.082     +0.011     +0.016
      -0.082     +0.011     -0.016
      -0.500     -0.171     +0.060
      -0.500     -0.171     -0.060
      +0.373     +0.292     -0.000
      +0.237     +0.212     -0.000
vibration  9
      -0.000     -0.000     -0.421
      +0.000     +0.000     +0.384
      +0.000     -0.000     +0.008
      +0.320     -0.263     +0.002
      -0.320     +0.263     +0.002
      +0.283     -0.292     -0.002
      -0.283     +0.292     -0.002
      +0.000     +0.000     +0.031
      -0.000     -0.000     -0.011
vibration  10
      -0.214     +0.115     +0.000
      -0.282     +0.104     -0.000
      +0.153     -0.415     +0.000
      +0.288     +0.153     +0.082
      +0.288     +0.153     -0.081
      +0.070     -0.341     +0.273
      +0.070     -0.341     -0.273
      +0.134     +0.108     -0.000
      -0.053     -0.072     +0.000
vibration  11
      +0.000     -0.000     +0.003
      +0.000     +0.000     -0.309
      -0.000     +0.000     +0.712
      +0.395     +0.201     +0.013
      -0.395     -0.201     +0.013
      -0.046     +0.012     -0.008
      +0.046     -0.012     -0.007
      -0.000     -0.000     +0.007
      +0.000     +0.000     +0.002
vibration  12
      +0.150     -0.040     -0.000
      -0.047     -0.338     -0.000
      -0.049     -0.109     +0.000
      +0.071     +0.426     +0.423
      +0.071     +0.426     -0.423
      -0.075     +0.171     -0.129
      -0.075     +0.171     +0.129
      -0.076     -0.067     +0.000
      +0.028     +0.038     -0.000
vibration  13
      +0.001     -0.390     +0.000
      -0.388     +0.328     +0.000
      +0.082     -0.307     -0.000
      +0.200     -0.026     -0.133
      +0.200     -0.026     +0.133
      +0.034     +0.214     -0.307
      +0.034     +0.214     +0.307
      +0.088     -0.019     +0.000
      +0.210     +0.193     -0.000
vibration  14
      -0.636     -0.299     +0.000
      +0.264     -0.071     -0.000
      +0.118     +0.001     +0.000
      -0.118     +0.065     +0.072
      -0.118     +0.065     -0.072
      +0.149     +0.045     -0.167
      +0.149     +0.045     +0.167
      +0.304     +0.300     -0.000
      -0.179     -0.229     +0.000
vibration  15
      +0.437     -0.220     +0.000
      -0.121     +0.119     -0.000
      -0.008     -0.047     -0.000
      +0.022     +0.012     -0.049
      +0.022     +0.012     +0.049
      -0.136     -0.018     -0.068
      -0.136     -0.019     +0.068
      -0.049     +0.245     -0.000
      -0.562     -0.546     +0.000
vibration  16
      -0.034     -0.164     +0.000
      +0.187     -0.139     +0.000
      -0.415     -0.250     -0.000
      +0.002     +0.285     -0.386
      +0.002     +0.285     +0.387
      +0.015     +0.200     +0.266
      +0.015     +0.200     -0.266
      +0.003     +0.008     -0.000
      -0.001     -0.006     +0.000
vibration  17
      +0.001     +0.327     -0.000
      +0.124     -0.107     +0.000
      -0.246     -0.135     -0.000
      +0.008     +0.155     -0.219
      +0.008     +0.155     +0.219
      -0.028     -0.338     -0.454
      -0.028     -0.338     +0.454
      -0.008     -0.017     +0.000
      +0.006     +0.017     -0.000
vibration  18
      -0.000     -0.000     -0.443
      -0.000     -0.000     +0.013
      +0.000     +0.000     +0.002
      +0.010     -0.006     -0.002
      -0.010     +0.006     -0.002
      +0.026     +0.366     +0.517
      -0.026     -0.366     +0.517
      -0.000     -0.000     +0.005
      +0.000     +0.000     +0.005
vibration  19
      +0.005     +0.008     -0.000
      -0.273     -0.347     +0.000
      +0.618     +0.384     +0.000
      +0.016     +0.222     -0.298
      +0.016     +0.221     +0.297
      -0.005     +0.004     -0.001
      -0.005     +0.004     +0.001
      +0.003     -0.004     +0.000
      +0.005     +0.004     -0.000
vibration  20
      +0.000     +0.000     +0.009
      -0.000     -0.000     -0.441
      +0.000     +0.000     +0.011
      -0.016     -0.363     +0.520
      +0.016     +0.363     +0.520
      -0.009     +0.008     +0.002
      +0.009     -0.008     +0.002
      +0.000     -0.000     +0.000
      +0.000     +0.000     -0.000
vibration  21
      -0.010     -0.014     +0.000
      -0.000     +0.001     +0.000
      +0.001     -0.000     -0.000
      -0.001     +0.000     -0.000
      -0.001     +0.000     +0.000
      -0.002     +0.002     +0.002
      -0.002     +0.002     -0.002
      +0.190     -0.154     +0.000
      -0.717     +0.652     -0.000
