[Molden Format]
[FR-COORD] # Coordinates in bohr
  C    -0.015229    +1.098947    +0.095941 
  C    -2.498252    -0.438299    -0.029076 
  H    -4.112865    +0.818153    +0.122208 
  H    -2.622302    -1.456200    -1.805913 
  H    -2.590148    -1.797352    +1.507090 
  H    +0.008883    +2.485615    -1.436284 
  H    +0.049285    +2.149847    +1.882485 
  O    +2.201459    -0.428795    -0.220016 
  H    +2.129627    -1.631742    +1.213968 
[FREQ] # Frequencies in cm^-1
  229.7567
  284.2042
  448.8487
  921.4082
 1065.1296
 1105.8087
 1268.7720
 1340.8214
 1448.7494
 1540.9548
 1673.4966
 1734.9326
 1814.2642
 1825.7234
 1840.4135
 3077.4935
 3559.8070
 3568.0160
 3683.2113
 3749.4716
 3758.6169
[FR-NORM-COORD] # Displacements in bohr
vibration  1
      +0.001     +0.015     +0.157
      +0.031     -0.018     +0.029
      -0.007     +0.036     -0.513
      +0.280     -0.382     +0.204
      -0.237     +0.325     +0.285
      -0.011     +0.049     +0.086
      +0.004     -0.047     +0.076
      +0.015     +0.097     -0.096
      -0.141     -0.252     -0.281
vibration  2
      +0.000     -0.104     +0.214
      -0.100     +0.060     -0.100
      -0.006     +0.071     -0.218
      +0.084     -0.060     +0.007
      -0.186     +0.091     +0.025
      -0.002     +0.053     +0.137
      +0.029     -0.127     +0.115
      -0.082     -0.141     -0.253
      +0.532     +0.486     +0.388
vibration  3
      -0.040     -0.390     -0.088
      -0.435     +0.097     +0.027
      +0.030     +0.228     +0.033
      -0.302     +0.036     +0.015
      -0.267     +0.059     +0.027
      -0.031     -0.119     -0.032
      -0.055     -0.081     -0.042
      +0.501     +0.259     +0.097
      +0.189     -0.100     -0.125
vibration  4
      +0.022     +0.012     -0.248
      -0.017     -0.020     -0.098
      +0.014     -0.003     +0.152
      -0.311     -0.243     +0.130
      +0.259     +0.199     +0.170
      +0.135     +0.384     +0.277
      -0.125     -0.445     +0.196
      +0.087     -0.017     +0.024
      -0.238     +0.144     +0.124
vibration  5
      +0.082     +0.369     +0.028
      -0.498     -0.022     -0.005
      -0.450     -0.386     -0.024
      +0.085     -0.092     +0.025
      +0.118     -0.065     -0.030
      +0.168     +0.111     +0.006
      +0.132     +0.108     +0.008
      +0.302     -0.186     -0.012
      +0.126     -0.095     -0.011
vibration  6
      +0.135     +0.060     -0.018
      -0.114     -0.165     +0.151
      +0.028     +0.053     -0.113
      +0.092     +0.134     -0.072
      -0.344     -0.185     -0.094
      -0.265     +0.079     +0.048
      +0.260     -0.052     +0.027
      +0.249     -0.024     -0.132
      -0.590     +0.303     +0.190
vibration  7
      -0.441     -0.255     -0.141
      +0.123     +0.413     +0.124
      -0.179     -0.151     -0.058
      +0.417     +0.145     +0.003
      +0.255     +0.025     -0.044
      -0.288     +0.011     +0.045
      -0.044     -0.196     +0.015
      +0.248     -0.095     +0.008
      -0.039     +0.000     +0.046
vibration  8
      +0.327     -0.425     -0.102
      -0.129     +0.121     +0.058
      -0.202     -0.170     -0.036
      +0.184     +0.005     +0.017
      +0.107     -0.049     -0.047
      +0.327     -0.112     -0.013
      +0.364     -0.180     -0.008
      -0.333     +0.351     +0.069
      -0.097     +0.111     -0.026
vibration  9
      +0.018     -0.181     +0.460
      -0.029     +0.130     -0.292
      -0.077     -0.076     +0.139
      -0.155     -0.203     +0.062
      +0.297     +0.194     +0.069
      -0.072     -0.340     -0.111
      -0.052     +0.258     -0.045
      +0.142     +0.016     -0.202
      -0.332     +0.198     +0.078
vibration  10
      +0.003     +0.049     -0.017
      +0.009     -0.016     -0.218
      +0.026     +0.011     +0.056
      -0.175     -0.125     +0.012
      +0.120     +0.116     +0.046
      -0.571     +0.062     +0.027
      +0.668     -0.034     +0.000
      -0.093     +0.008     +0.179
      +0.184     -0.124     -0.032
vibration  11
      -0.514     +0.050     +0.061
      -0.044     -0.185     -0.036
      +0.224     +0.239     +0.045
      +0.127     +0.104     -0.109
      +0.130     +0.103     +0.135
      +0.507     -0.008     +0.005
      +0.460     +0.056     -0.028
      +0.140     -0.016     -0.043
      -0.054     +0.026     +0.026
vibration  12
      +0.282     +0.010     -0.022
      -0.428     -0.173     -0.022
      +0.221     +0.384     +0.073
      +0.457     +0.062     -0.111
      +0.419     +0.054     +0.119
      -0.208     +0.042     +0.024
      -0.191     +0.024     -0.006
      -0.055     +0.003     +0.017
      +0.019     -0.011     -0.011
vibration  13
      +0.041     +0.252     +0.024
      +0.003     -0.109     -0.004
      -0.059     -0.097     -0.031
      -0.043     +0.277     -0.172
      -0.014     +0.223     +0.219
      -0.038     -0.410     -0.427
      -0.029     -0.489     +0.333
      +0.004     +0.002     +0.003
      +0.009     -0.004     -0.002
vibration  14
      +0.002     -0.013     +0.047
      -0.019     -0.027     +0.193
      +0.006     +0.098     -0.705
      -0.408     +0.182     -0.030
      +0.462     -0.175     -0.071
      -0.006     -0.008     +0.015
      +0.006     +0.038     -0.007
      +0.003     -0.001     -0.008
      -0.011     +0.006     +0.003
vibration  15
      -0.087     +0.182     +0.020
      -0.061     +0.152     +0.017
      +0.151     +0.253     +0.021
      +0.077     -0.477     +0.294
      +0.070     -0.407     -0.385
      +0.046     -0.213     -0.236
      +0.053     -0.255     +0.184
      +0.026     -0.010     -0.002
      +0.007     -0.008     +0.001
vibration  16
      +0.024     -0.014     -0.000
      -0.000     -0.001     +0.001
      -0.001     +0.000     +0.000
      +0.001     +0.000     -0.001
      -0.001     -0.001     +0.000
      +0.005     +0.003     -0.006
      -0.000     -0.007     -0.008
      -0.010     +0.229     -0.252
      -0.032     -0.605     +0.718
vibration  17
      -0.013     -0.228     -0.088
      -0.009     +0.004     +0.004
      +0.042     -0.037     -0.004
      +0.006     +0.017     +0.024
      +0.004     +0.031     -0.030
      +0.002     +0.351     -0.394
      +0.023     +0.405     +0.700
      +0.002     +0.001     -0.002
      -0.004     +0.002     +0.004
vibration  18
      +0.009     +0.023     +0.007
      -0.152     -0.099     +0.001
      +0.434     -0.343     -0.040
      +0.030     +0.270     +0.478
      +0.023     +0.391     -0.445
      +0.002     -0.025     +0.030
      +0.000     -0.028     -0.051
      +0.001     +0.000     -0.000
      -0.000     -0.001     +0.000
vibration  19
      +0.003     -0.084     +0.303
      -0.003     +0.008     -0.028
      +0.010     -0.009     -0.003
      -0.000     +0.027     +0.047
      +0.003     -0.038     +0.046
      +0.007     +0.532     -0.592
      -0.018     -0.256     -0.440
      +0.001     -0.002     +0.001
      -0.006     +0.010     -0.008
vibration  20
      -0.000     +0.008     -0.021
      -0.110     +0.187     -0.227
      +0.391     -0.306     -0.041
      +0.015     +0.153     +0.262
      -0.031     -0.491     +0.559
      -0.005     -0.044     +0.047
      +0.004     +0.017     +0.030
      +0.001     -0.000     -0.000
      +0.001     -0.001     +0.001
vibration  21
      +0.000     +0.001     +0.013
      -0.126     +0.191     +0.217
      +0.473     -0.372     -0.042
      -0.042     -0.356     -0.628
      +0.002     +0.072     -0.076
      +0.002     +0.014     -0.018
      -0.005     -0.021     -0.031
      +0.001     -0.000     -0.000
      -0.000     +0.001     -0.000
