[Molden Format]
[FR-COORD] # Coordinates in bohr
  C    -0.022425    +1.047464    -0.000077 
  C    +2.257357    -0.766201    -0.000087 
  H    +4.010576    +0.299680    +0.000168 
  H    +2.213285    -1.964005    +1.664827 
  H    +2.213577    -1.963687    -1.665238 
  H    +0.071517    +2.274249    +1.669355 
  H    +0.071279    +2.273983    -1.669715 
  O    -2.295543    -0.433084    +0.000214 
  H    -3.665986    +0.843347    -0.000108 
[FREQ] # Frequencies in cm^-1
  166.2387
  261.5321
  385.4153
  696.5465
  873.8879
  988.0702
 1036.9843
 1068.0306
 1159.0186
 1280.0048
 1315.5823
 1318.7545
 1330.1628
 1443.3926
 1550.5763
 2570.4713
 2587.3428
 2714.0694
 2793.3081
 2794.6993
 3079.5357
[FR-NORM-COORD] # Displacements in bohr
vibration  1
      +0.000     +0.000     +0.207
      -0.000     +0.000     +0.017
      +0.000     +0.000     -0.526
      +0.325     +0.300     +0.230
      -0.325     -0.300     +0.230
      -0.047     -0.120     +0.176
      +0.047     +0.120     +0.176
      -0.000     -0.000     -0.296
      +0.000     +0.000     +0.001
vibration  2
      +0.000     +0.000     +0.143
      -0.000     -0.000     -0.089
      +0.000     -0.000     -0.085
      +0.064     -0.031     -0.057
      -0.064     +0.031     -0.057
      +0.034     -0.005     +0.065
      -0.034     +0.005     +0.065
      -0.000     +0.000     +0.304
      +0.000     -0.000     -0.919
vibration  3
      -0.036     -0.371     +0.000
      +0.321     +0.003     -0.000
      -0.035     +0.282     -0.000
      +0.350     +0.003     +0.007
      +0.350     +0.003     -0.007
      +0.032     -0.148     -0.007
      +0.032     -0.148     +0.007
      -0.508     +0.221     +0.000
      +0.007     +0.283     -0.000
vibration  4
      -0.000     -0.000     -0.236
      -0.000     -0.000     -0.184
      -0.000     +0.000     +0.148
      -0.329     +0.313     +0.139
      +0.329     -0.313     +0.139
      +0.222     -0.369     +0.162
      -0.222     +0.369     +0.161
      -0.000     +0.000     +0.111
      -0.000     -0.000     -0.036
vibration  5
      -0.046     +0.107     +0.000
      +0.439     +0.086     -0.000
      +0.525     -0.498     -0.000
      -0.064     -0.022     -0.043
      -0.064     -0.022     +0.043
      -0.277     +0.083     -0.009
      -0.277     +0.083     +0.009
      -0.273     -0.055     +0.000
      -0.032     +0.062     -0.000
vibration  6
      +0.138     -0.350     +0.000
      -0.063     +0.295     -0.000
      +0.028     +0.025     +0.000
      -0.331     +0.190     +0.025
      -0.331     +0.189     -0.025
      -0.087     -0.206     +0.032
      -0.087     -0.206     -0.032
      +0.066     -0.095     -0.000
      +0.438     +0.409     -0.000
vibration  7
      -0.000     +0.000     +0.340
      -0.000     -0.000     -0.022
      -0.000     +0.000     +0.058
      -0.017     +0.032     +0.016
      +0.017     -0.032     +0.016
      +0.584     +0.245     -0.055
      -0.584     -0.245     -0.055
      +0.000     +0.000     -0.263
      +0.000     -0.000     -0.011
vibration  8
      -0.131     +0.023     -0.000
      -0.084     -0.242     +0.000
      -0.152     +0.080     -0.000
      +0.196     -0.152     -0.018
      +0.196     -0.152     +0.018
      -0.491     +0.069     -0.008
      -0.490     +0.069     +0.008
      +0.345     +0.143     +0.000
      +0.294     +0.217     -0.000
vibration  9
      +0.000     +0.000     +0.421
      -0.000     -0.000     -0.384
      -0.000     +0.000     -0.008
      -0.320     +0.263     -0.002
      +0.320     -0.263     -0.002
      -0.283     +0.293     +0.002
      +0.283     -0.292     +0.002
      -0.000     -0.000     -0.031
      +0.000     +0.000     +0.008
vibration  10
      +0.112     +0.069     -0.000
      -0.064     -0.031     +0.000
      -0.079     +0.061     +0.000
      +0.036     -0.068     -0.034
      +0.036     -0.068     +0.034
      +0.130     +0.420     -0.281
      +0.130     +0.420     +0.281
      -0.240     -0.411     +0.000
      +0.305     +0.299     -0.000
vibration  11
      +0.000     -0.000     -0.003
      +0.000     -0.000     +0.309
      -0.000     +0.000     -0.712
      -0.395     -0.201     -0.013
      +0.394     +0.201     -0.013
      +0.046     -0.012     +0.007
      -0.046     +0.012     +0.008
      -0.000     +0.000     -0.007
      -0.000     -0.000     -0.002
vibration  12
      +0.058     -0.078     +0.000
      +0.342     +0.077     -0.000
      -0.084     +0.436     +0.001
      -0.328     -0.347     -0.285
      -0.329     -0.348     +0.285
      -0.059     +0.047     -0.054
      -0.059     +0.047     +0.054
      +0.002     +0.095     -0.000
      -0.122     -0.101     +0.000
vibration  13
      -0.202     +0.090     -0.000
      -0.265     +0.401     +0.000
      +0.116     -0.216     -0.000
      +0.193     -0.292     -0.341
      +0.193     -0.292     +0.341
      +0.161     -0.151     +0.124
      +0.161     -0.151     -0.124
      +0.052     -0.081     +0.000
      +0.170     +0.131     -0.000
vibration  14
      +0.266     +0.571     -0.000
      +0.095     -0.195     +0.000
      -0.121     +0.189     +0.000
      -0.028     -0.044     +0.041
      -0.028     -0.044     -0.041
      -0.044     -0.172     +0.351
      -0.044     -0.172     -0.351
      -0.257     -0.294     +0.000
      +0.108     +0.153     -0.000
vibration  15
      -0.745     +0.136     +0.000
      +0.337     -0.215     -0.000
      +0.065     +0.094     +0.000
      -0.111     +0.025     +0.105
      -0.111     +0.025     -0.105
      +0.223     -0.013     +0.040
      +0.223     -0.013     -0.040
      +0.170     -0.025     +0.000
      +0.228     +0.147     -0.000
vibration  16
      +0.034     +0.166     -0.000
      -0.186     +0.138     -0.000
      +0.413     +0.250     +0.000
      -0.002     -0.284     +0.385
      -0.002     -0.284     -0.385
      -0.015     -0.202     -0.268
      -0.015     -0.202     +0.268
      -0.001     -0.010     +0.000
      -0.006     +0.009     -0.000
vibration  17
      -0.001     -0.325     +0.000
      -0.125     +0.108     -0.000
      +0.249     +0.136     +0.000
      -0.008     -0.156     +0.222
      -0.008     -0.156     -0.222
      +0.028     +0.337     +0.453
      +0.028     +0.337     -0.453
      +0.004     +0.019     -0.000
      +0.008     -0.020     +0.000
vibration  18
      +0.000     +0.000     +0.443
      +0.000     +0.000     -0.013
      -0.000     -0.000     -0.002
      -0.010     +0.006     +0.002
      +0.010     -0.006     +0.002
      -0.026     -0.366     -0.517
      +0.026     +0.366     -0.517
      -0.000     +0.000     -0.005
      +0.000     -0.000     -0.004
vibration  19
      -0.006     -0.008     +0.000
      +0.273     +0.347     -0.000
      -0.618     -0.384     -0.000
      -0.016     -0.222     +0.298
      -0.016     -0.221     -0.297
      +0.005     -0.004     +0.001
      +0.005     -0.004     -0.001
      -0.002     +0.002     -0.000
      -0.006     +0.001     -0.000
vibration  20
      -0.000     -0.000     -0.009
      +0.000     +0.000     +0.441
      -0.000     -0.000     -0.011
      +0.016     +0.363     -0.520
      -0.016     -0.363     -0.520
      +0.009     -0.008     -0.002
      -0.009     +0.008     -0.002
      -0.000     +0.000     -0.000
      -0.000     -0.000     +0.000
vibration  21
      +0.022     +0.025     -0.000
      +0.003     +0.000     -0.000
      -0.003     -0.002     -0.000
      +0.001     -0.001     +0.001
      +0.001     -0.001     -0.001
      +0.001     -0.007     -0.009
      +0.001     -0.007     +0.009
      -0.267     +0.211     -0.000
      +0.691     -0.637     +0.000
