[Molden Format]
[FR-COORD] # Coordinates in bohr
  C    +0.163830    +1.056437    +0.090732 
  C    -2.319193    -0.480809    -0.034285 
  H    -3.933806    +0.775643    +0.116999 
  H    -2.443243    -1.498710    -1.811122 
  H    -2.411089    -1.839862    +1.501881 
  H    +0.187942    +2.443105    -1.441493 
  H    +0.228344    +2.107337    +1.877276 
  O    +2.380518    -0.471305    -0.225225 
  H    +2.308686    -1.674252    +1.208759 
[FREQ] # Frequencies in cm^-1
  172.0259
  273.6637
  403.2874
  684.4505
  866.5598
  945.3003
 1042.5905
 1126.1143
 1150.2544
 1289.0107
 1318.1047
 1323.8518
 1345.2779
 1407.2921
 1527.1431
 2569.0297
 2601.2997
 2739.4535
 2785.6537
 2793.2267
 3077.7108
[FR-NORM-COORD] # Displacements in bohr
vibration  1
      +0.001     -0.005     +0.187
      +0.010     -0.005     +0.021
      -0.008     +0.046     -0.523
      +0.291     -0.367     +0.197
      -0.265     +0.319     +0.276
      -0.024     +0.095     +0.164
      +0.025     -0.116     +0.143
      -0.006     +0.069     -0.195
      -0.027     -0.148     -0.215
vibration  2
      +0.002     +0.108     -0.117
      +0.100     -0.039     +0.062
      +0.001     -0.078     +0.105
      -0.002     -0.022     +0.032
      +0.161     -0.020     +0.031
      +0.013     -0.031     -0.116
      -0.040     +0.132     -0.095
      +0.060     +0.140     +0.221
      -0.550     -0.543     -0.447
vibration  3
      -0.018     -0.346     -0.069
      -0.316     +0.014     +0.011
      +0.071     +0.265     +0.038
      -0.367     +0.019     +0.013
      -0.322     +0.048     +0.030
      -0.049     -0.150     -0.036
      -0.088     -0.109     -0.044
      +0.501     +0.299     +0.101
      +0.160     -0.106     -0.142
vibration  4
      -0.004     -0.025     +0.257
      +0.001     -0.007     +0.169
      -0.004     +0.018     -0.147
      +0.356     +0.279     -0.115
      -0.345     -0.239     -0.160
      -0.218     -0.354     -0.207
      +0.199     +0.395     -0.137
      -0.031     +0.023     -0.064
      +0.107     -0.083     -0.094
vibration  5
      +0.065     +0.109     +0.030
      -0.427     +0.133     +0.002
      -0.577     -0.429     -0.028
      +0.032     -0.051     +0.041
      +0.079     -0.013     -0.038
      +0.323     +0.028     -0.007
      +0.206     +0.092     -0.016
      +0.229     -0.044     +0.007
      +0.174     -0.092     -0.051
vibration  6
      +0.092     +0.092     -0.240
      -0.094     -0.092     +0.117
      -0.067     -0.055     -0.064
      +0.019     +0.044     -0.006
      -0.244     -0.147     -0.052
      -0.370     +0.267     +0.092
      +0.475     -0.204     +0.021
      +0.223     -0.035     +0.048
      -0.435     +0.196     +0.175
vibration  7
      -0.232     -0.254     -0.121
      -0.013     +0.364     +0.043
      -0.154     -0.031     -0.011
      +0.392     +0.203     -0.022
      +0.380     +0.181     +0.046
      -0.433     -0.105     -0.036
      -0.126     -0.273     +0.024
      +0.170     -0.069     +0.063
      +0.058     -0.050     +0.011
vibration  8
      +0.038     +0.299     +0.102
      +0.010     -0.012     -0.041
      -0.042     -0.061     +0.000
      -0.155     -0.051     +0.016
      -0.085     +0.001     -0.015
      -0.408     +0.235     +0.126
      -0.463     +0.342     -0.051
      +0.343     -0.382     -0.090
      +0.070     -0.093     +0.028
vibration  9
      +0.010     -0.014     +0.279
      +0.012     +0.012     -0.359
      +0.021     +0.009     -0.024
      -0.354     -0.217     -0.020
      +0.305     +0.187     +0.008
      -0.400     -0.146     -0.000
      +0.498     +0.169     +0.013
      -0.083     +0.026     +0.088
      +0.109     -0.069     -0.028
vibration  10
      +0.241     +0.037     +0.247
      +0.155     +0.131     -0.065
      -0.175     -0.257     +0.011
      -0.204     +0.002     +0.024
      -0.125     +0.103     -0.006
      -0.043     -0.440     -0.280
      -0.236     -0.189     +0.249
      +0.067     +0.051     -0.188
      -0.374     +0.228     +0.088
vibration  11
      -0.006     -0.035     +0.059
      -0.113     +0.054     -0.302
      +0.043     +0.050     +0.685
      +0.425     -0.349     +0.039
      -0.253     +0.151     -0.037
      -0.012     -0.020     +0.026
      +0.034     +0.072     -0.026
      +0.049     +0.000     -0.042
      -0.086     +0.049     +0.024
vibration  12
      -0.058     +0.041     -0.066
      +0.159     -0.251     -0.090
      -0.041     -0.287     +0.154
      -0.045     +0.420     -0.339
      -0.258     +0.447     +0.435
      +0.001     +0.065     +0.005
      +0.085     -0.017     -0.017
      -0.038     -0.016     +0.060
      +0.121     -0.071     -0.027
vibration  13
      -0.083     -0.147     +0.237
      -0.305     -0.220     -0.030
      +0.081     +0.200     -0.091
      +0.105     +0.160     -0.187
      +0.339     +0.111     +0.207
      +0.193     -0.046     +0.155
      -0.019     +0.282     -0.089
      +0.230     -0.015     -0.216
      -0.402     +0.230     +0.109
vibration  14
      +0.089     -0.541     -0.009
      +0.285     +0.254     +0.012
      -0.148     -0.254     -0.018
      -0.121     +0.008     +0.097
      -0.117     +0.042     -0.089
      -0.001     +0.144     +0.385
      -0.049     +0.276     -0.328
      -0.120     +0.136     -0.025
      -0.138     +0.104     +0.015
vibration  15
      +0.759     -0.081     -0.080
      -0.333     -0.137     +0.000
      -0.070     +0.074     +0.006
      +0.125     +0.045     -0.097
      +0.113     +0.010     +0.101
      -0.238     +0.051     +0.025
      -0.193     -0.013     -0.028
      -0.300     +0.135     +0.086
      +0.070     -0.016     -0.053
vibration  16
      -0.024     +0.057     +0.017
      +0.230     +0.143     +0.003
      -0.424     +0.324     +0.038
      -0.040     -0.267     -0.460
      -0.033     -0.372     +0.415
      -0.003     -0.084     +0.088
      -0.006     -0.082     -0.133
      -0.000     -0.001     -0.000
      +0.003     -0.004     +0.002
vibration  17
      +0.023     +0.348     +0.098
      -0.064     -0.051     -0.005
      +0.096     -0.061     -0.008
      +0.000     +0.049     +0.095
      +0.001     +0.071     -0.085
      -0.003     -0.370     +0.395
      -0.021     -0.374     -0.626
      +0.006     -0.009     -0.001
      +0.011     -0.015     +0.002
vibration  18
      -0.005     +0.104     -0.434
      -0.003     -0.003     +0.012
      +0.006     -0.003     +0.001
      +0.009     +0.003     -0.002
      -0.012     -0.005     -0.003
      -0.009     -0.476     +0.542
      +0.019     +0.255     +0.462
      -0.005     -0.007     +0.017
      +0.021     +0.001     -0.017
vibration  19
      +0.003     -0.006     +0.008
      -0.152     +0.264     -0.318
      +0.365     -0.290     -0.026
      +0.020     +0.130     +0.249
      -0.025     -0.470     +0.535
      -0.011     -0.006     -0.001
      +0.005     +0.003     +0.002
      +0.003     +0.000     -0.000
      +0.001     +0.001     +0.000
vibration  20
      -0.004     +0.006     +0.004
      +0.176     -0.266     -0.305
      -0.446     +0.353     +0.049
      +0.034     +0.340     +0.593
      -0.009     -0.060     +0.085
      -0.002     -0.004     +0.004
      +0.011     +0.008     +0.004
      -0.004     -0.001     +0.000
      +0.000     -0.001     -0.000
vibration  21
      +0.024     -0.013     -0.013
      -0.001     -0.001     +0.001
      +0.000     -0.001     +0.000
      +0.001     +0.001     +0.000
      -0.001     -0.000     -0.000
      +0.003     -0.009     +0.008
      +0.001     +0.005     +0.012
      -0.010     +0.229     -0.251
      -0.032     -0.605     +0.718
