[Molden Format]
[FR-COORD] # Coordinates in bohr
  C    +0.209318    +1.023450    +0.114548 
  C    -2.273705    -0.513796    -0.010469 
  H    -3.888318    +0.742656    +0.140815 
  H    -2.397755    -1.531697    -1.787306 
  H    -2.365601    -1.872849    +1.525697 
  H    +0.233430    +2.410118    -1.417677 
  H    +0.273832    +2.074350    +1.901092 
  O    +2.426006    -0.504292    -0.201409 
  H    +2.354174    -1.707239    +1.232575 
[FREQ] # Frequencies in cm^-1
  174.8285
  366.2582
  410.4314
  689.1432
  871.5324
 1001.6747
 1044.7370
 1129.1727
 1154.5458
 1308.3393
 1319.3307
 1326.5744
 1401.4100
 1521.5551
 1678.2450
 2569.0565
 2601.7200
 2740.3933
 2785.6551
 2793.2283
 4224.3669
[FR-NORM-COORD] # Displacements in bohr
vibration  1
      -0.004     +0.017     -0.201
      -0.005     +0.002     -0.012
      +0.007     -0.051     +0.527
      -0.291     +0.359     -0.189
      +0.274     -0.315     -0.267
      +0.025     -0.106     -0.184
      -0.034     +0.139     -0.159
      +0.015     -0.050     +0.244
      -0.002     +0.092     +0.149
vibration  2
      -0.003     +0.140     -0.081
      +0.125     -0.025     +0.037
      -0.016     -0.104     +0.057
      +0.058     -0.044     +0.034
      +0.180     +0.002     +0.036
      +0.033     +0.018     -0.069
      -0.026     +0.100     -0.053
      -0.049     +0.053     +0.157
      -0.551     -0.568     -0.475
vibration  3
      -0.010     -0.340     -0.080
      -0.296     +0.004     +0.017
      +0.076     +0.255     +0.045
      -0.365     +0.007     +0.021
      -0.302     +0.050     +0.040
      -0.048     -0.139     -0.032
      -0.085     -0.118     -0.041
      +0.517     +0.315     +0.092
      +0.020     -0.174     -0.194
vibration  4
      -0.004     +0.039     -0.253
      -0.004     +0.016     -0.176
      -0.009     -0.029     +0.147
      -0.351     -0.281     +0.115
      +0.363     +0.245     +0.160
      +0.235     +0.351     +0.200
      -0.211     -0.379     +0.132
      +0.007     -0.035     +0.081
      -0.037     +0.080     +0.092
vibration  5
      +0.087     +0.108     +0.008
      -0.440     +0.113     +0.026
      -0.579     -0.431     -0.040
      +0.040     -0.039     +0.038
      +0.026     -0.043     -0.049
      +0.270     +0.052     +0.006
      +0.279     +0.062     -0.011
      +0.276     -0.041     -0.005
      +0.068     -0.034     -0.017
vibration  6
      +0.015     +0.116     -0.324
      -0.008     -0.060     +0.091
      +0.011     +0.006     -0.057
      +0.032     +0.054     -0.011
      -0.160     -0.098     -0.032
      -0.549     +0.333     +0.101
      +0.445     -0.244     +0.010
      +0.137     -0.089     +0.166
      -0.259     +0.093     +0.127
vibration  7
      -0.231     -0.290     -0.066
      -0.018     +0.380     +0.036
      -0.165     -0.036     -0.002
      +0.402     +0.202     -0.020
      +0.405     +0.196     +0.051
      -0.329     -0.173     -0.056
      -0.197     -0.247     +0.027
      +0.157     -0.048     +0.028
      +0.069     -0.037     -0.008
vibration  8
      +0.040     +0.273     +0.104
      +0.003     +0.006     -0.005
      -0.059     -0.070     +0.006
      -0.104     -0.024     +0.019
      -0.099     -0.007     -0.014
      -0.336     +0.208     +0.115
      -0.554     +0.328     -0.047
      +0.363     -0.383     -0.118
      +0.030     -0.054     +0.016
vibration  9
      +0.024     -0.018     +0.356
      +0.004     +0.037     -0.376
      -0.006     -0.011     -0.018
      -0.363     -0.222     -0.017
      +0.324     +0.207     +0.009
      -0.400     -0.194     -0.003
      +0.379     +0.226     +0.019
      -0.016     -0.008     +0.026
      +0.064     -0.041     -0.022
vibration  10
      +0.211     +0.153     +0.023
      +0.320     +0.075     +0.053
      -0.184     -0.371     -0.143
      -0.347     +0.190     -0.025
      -0.242     +0.103     +0.058
      -0.112     -0.285     -0.310
      -0.147     -0.332     +0.254
      -0.079     +0.040     -0.010
      -0.059     +0.038     +0.015
vibration  11
      -0.031     -0.030     -0.015
      -0.031     -0.019     +0.305
      +0.015     +0.128     -0.692
      -0.321     +0.201     +0.042
      +0.407     -0.279     -0.074
      +0.056     +0.054     +0.058
      -0.030     +0.039     -0.035
      +0.004     -0.005     +0.001
      +0.019     -0.012     -0.007
vibration  12
      -0.133     -0.048     -0.007
      +0.012     -0.331     -0.023
      +0.017     -0.135     -0.043
      -0.048     +0.496     -0.380
      -0.003     +0.388     +0.468
      +0.093     +0.125     +0.131
      +0.098     +0.144     -0.107
      +0.041     -0.028     +0.002
      +0.031     -0.017     -0.004
vibration  13
      -0.052     +0.473     +0.096
      -0.359     -0.278     -0.027
      +0.147     +0.288     +0.010
      +0.146     +0.004     -0.123
      +0.188     -0.022     +0.117
      +0.042     -0.198     -0.352
      +0.010     -0.212     +0.316
      +0.182     -0.123     -0.057
      -0.064     +0.018     +0.032
vibration  14
      +0.762     -0.155     -0.022
      -0.335     -0.122     -0.007
      -0.082     +0.067     +0.003
      +0.123     +0.046     -0.096
      +0.131     +0.021     +0.101
      -0.202     +0.011     +0.063
      -0.213     +0.030     -0.046
      -0.254     +0.159     +0.013
      -0.116     +0.077     +0.012
vibration  15
      -0.087     -0.173     +0.184
      +0.025     +0.043     -0.016
      -0.016     -0.018     -0.005
      -0.016     -0.003     +0.012
      +0.027     +0.022     -0.010
      +0.136     -0.155     +0.093
      -0.031     +0.093     -0.015
      +0.205     +0.036     -0.233
      -0.742     +0.392     +0.244
vibration  16
      -0.025     +0.056     +0.017
      +0.231     +0.143     +0.003
      -0.424     +0.324     +0.039
      -0.040     -0.267     -0.460
      -0.033     -0.373     +0.416
      -0.003     -0.082     +0.086
      -0.006     -0.081     -0.131
      -0.000     -0.002     +0.001
      +0.006     -0.003     -0.001
vibration  17
      +0.023     +0.349     +0.099
      -0.063     -0.051     -0.005
      +0.094     -0.060     -0.007
      +0.000     +0.049     +0.093
      +0.001     +0.070     -0.083
      -0.004     -0.368     +0.392
      -0.021     -0.376     -0.628
      +0.005     -0.011     +0.003
      +0.021     -0.016     -0.008
vibration  18
      -0.004     +0.106     -0.435
      -0.004     -0.003     +0.013
      +0.006     -0.003     +0.001
      +0.009     +0.003     -0.003
      -0.012     -0.005     -0.003
      -0.010     -0.476     +0.543
      +0.019     +0.253     +0.459
      -0.007     -0.005     +0.015
      +0.035     -0.013     -0.014
vibration  19
      +0.003     -0.006     +0.008
      -0.152     +0.264     -0.318
      +0.365     -0.290     -0.026
      +0.020     +0.130     +0.249
      -0.025     -0.470     +0.535
      -0.011     -0.006     -0.001
      +0.005     +0.003     +0.002
      +0.003     +0.000     -0.001
      +0.001     +0.001     +0.001
vibration  20
      -0.004     +0.006     +0.003
      +0.176     -0.266     -0.305
      -0.446     +0.353     +0.049
      +0.034     +0.340     +0.593
      -0.009     -0.060     +0.085
      -0.002     -0.004     +0.004
      +0.011     +0.008     +0.004
      -0.004     -0.001     +0.000
      +0.001     -0.001     -0.001
vibration  21
      +0.013     -0.005     -0.008
      +0.000     -0.001     +0.000
      +0.000     -0.000     +0.000
      +0.000     +0.000     +0.000
      -0.001     -0.000     -0.000
      -0.001     -0.002     +0.003
      +0.001     -0.000     +0.003
      -0.005     +0.163     -0.181
      -0.027     -0.627     +0.739
