[Molden Format]
[FR-COORD] # Coordinates in bohr
  C    +2.305438    -0.485137    -0.199671 
  C    -0.226613    +0.724885    +0.572784 
  O    -2.414539    -0.534957    -0.359929 
  H    +2.409721    -0.693269    -2.238297 
  H    +3.866962    +0.691179    +0.422020 
  H    +2.518156    -2.343300    +0.652843 
  H    -0.313652    +1.080504    +2.613480 
  H    -0.316571    +2.919242    -0.437963 
  H    -2.357401    -2.224939    +0.451244 
  H    -0.391038    +4.554280    -1.204123 
[FREQ] # Frequencies in cm^-1
 -2152.1411
  152.6318
  245.9527
  369.6908
  406.3625
  443.9452
  768.2299
  880.1925
 1010.2813
 1052.9942
 1113.7761
 1125.4213
 1215.5379
 1315.3020
 1319.9988
 1353.0380
 1513.4587
 1548.6422
 1746.7962
 2565.7430
 2649.4196
 2775.9456
 2792.3314
 4195.2198
[FR-NORM-COORD] # Displacements in bohr
vibration  1
      -0.001     -0.013     +0.009
      -0.009     +0.253     -0.106
      -0.006     -0.017     +0.003
      +0.000     -0.000     +0.003
      +0.000     -0.003     -0.001
      -0.001     -0.000     +0.001
      +0.011     -0.061     -0.000
      +0.034     -0.765     +0.357
      +0.012     +0.003     +0.006
      -0.019     +0.411     -0.193
vibration  2
      +0.003     +0.016     -0.009
      +0.007     +0.080     -0.098
      +0.000     -0.109     +0.177
      +0.249     +0.452     -0.036
      +0.017     -0.262     +0.463
      -0.261     -0.204     -0.396
      +0.024     +0.141     -0.058
      -0.025     -0.026     -0.168
      -0.003     +0.022     +0.146
      -0.038     -0.061     -0.205
vibration  3
      +0.052     +0.040     -0.030
      -0.003     -0.075     +0.006
      +0.067     -0.067     -0.191
      +0.003     +0.023     -0.013
      -0.004     +0.059     -0.028
      +0.076     +0.021     -0.020
      -0.027     -0.082     +0.007
      +0.010     -0.003     +0.066
      -0.531     +0.332     +0.717
      +0.012     +0.029     +0.111
vibration  4
      +0.076     +0.153     -0.019
      -0.098     -0.217     +0.017
      -0.300     +0.002     +0.102
      +0.075     +0.160     -0.016
      -0.111     +0.233     +0.031
      +0.250     +0.064     -0.065
      -0.030     -0.066     +0.002
      +0.268     -0.126     -0.065
      -0.065     -0.038     -0.053
      +0.698     -0.123     -0.187
vibration  5
      -0.285     +0.045     -0.027
      -0.096     +0.268     +0.040
      +0.326     -0.372     -0.051
      -0.264     +0.005     -0.017
      +0.016     -0.118     -0.096
      -0.253     -0.007     -0.035
      -0.095     +0.145     +0.008
      +0.138     +0.150     +0.048
      +0.168     -0.035     +0.101
      +0.493     +0.188     +0.189
vibration  6
      -0.141     +0.039     +0.016
      +0.012     -0.014     +0.444
      +0.280     +0.099     -0.202
      -0.346     +0.129     -0.019
      +0.041     -0.037     -0.147
      +0.010     -0.040     -0.135
      -0.087     -0.060     +0.189
      -0.005     -0.123     -0.035
      -0.046     +0.029     -0.035
      -0.077     -0.326     -0.540
vibration  7
      +0.097     -0.152     +0.162
      +0.005     -0.087     +0.056
      -0.049     +0.028     -0.040
      -0.274     +0.200     +0.023
      +0.052     +0.021     -0.117
      +0.371     -0.162     -0.224
      -0.242     +0.564     -0.094
      +0.096     -0.180     -0.177
      -0.046     -0.018     -0.060
      -0.117     +0.102     +0.301
vibration  8
      -0.418     -0.143     -0.053
      +0.098     -0.127     -0.032
      +0.315     +0.096     +0.002
      +0.024     +0.056     -0.019
      -0.585     +0.334     +0.215
      +0.063     +0.001     +0.043
      +0.313     +0.098     -0.033
      +0.121     -0.105     -0.072
      +0.025     +0.024     -0.004
      -0.086     -0.017     +0.097
vibration  9
      -0.025     -0.312     +0.040
      -0.078     +0.294     -0.133
      +0.022     -0.024     +0.094
      +0.054     +0.034     +0.000
      -0.175     +0.092     -0.002
      +0.419     -0.163     -0.136
      -0.358     -0.292     +0.009
      +0.177     +0.335     +0.156
      +0.217     +0.051     +0.126
      -0.112     +0.100     -0.216
vibration  10
      -0.015     +0.176     +0.242
      +0.220     -0.122     -0.312
      -0.080     -0.004     +0.089
      -0.451     +0.209     +0.080
      +0.070     +0.032     -0.012
      -0.212     +0.040     +0.060
      -0.020     -0.377     -0.101
      +0.440     -0.036     -0.177
      +0.051     +0.006     +0.035
      -0.198     +0.009     +0.063
vibration  11
      +0.016     -0.072     +0.229
      +0.025     +0.179     -0.019
      -0.281     -0.205     -0.218
      -0.218     +0.125     +0.081
      +0.052     -0.032     -0.005
      +0.219     -0.083     -0.054
      +0.707     +0.064     +0.025
      -0.059     +0.220     +0.162
      -0.029     -0.035     -0.007
      +0.015     +0.068     -0.141
vibration  12
      +0.016     -0.086     +0.176
      +0.008     -0.026     -0.211
      +0.198     +0.179     +0.115
      -0.238     +0.102     +0.057
      -0.011     +0.017     +0.013
      +0.122     -0.085     -0.046
      -0.000     -0.297     -0.047
      -0.695     -0.070     -0.251
      +0.008     +0.035     -0.003
      +0.282     +0.106     +0.056
vibration  13
      +0.089     -0.006     +0.029
      +0.177     -0.241     -0.278
      +0.043     +0.049     +0.075
      -0.224     +0.051     -0.004
      -0.073     +0.114     +0.066
      -0.166     -0.012     +0.040
      -0.171     +0.293     -0.223
      -0.172     +0.157     +0.645
      -0.023     +0.001     -0.006
      +0.072     -0.199     -0.173
vibration  14
      +0.035     +0.162     -0.250
      -0.006     +0.008     +0.010
      -0.006     +0.001     +0.000
      -0.383     -0.314     -0.097
      +0.002     -0.303     +0.639
      +0.337     +0.187     +0.055
      -0.039     +0.006     +0.001
      +0.029     -0.005     -0.016
      +0.011     +0.003     +0.006
      -0.007     +0.012     -0.000
vibration  15
      +0.138     +0.209     +0.164
      -0.036     +0.009     +0.006
      +0.002     +0.004     +0.001
      -0.061     -0.582     +0.137
      -0.079     +0.295     +0.059
      -0.178     -0.242     -0.598
      +0.043     -0.022     +0.012
      +0.028     -0.000     -0.025
      -0.001     -0.001     -0.005
      -0.010     +0.014     -0.000
vibration  16
      -0.436     +0.257     +0.197
      -0.203     -0.192     -0.243
      +0.210     +0.119     +0.099
      +0.223     -0.095     +0.145
      +0.234     -0.335     -0.168
      +0.314     +0.061     -0.177
      +0.112     -0.001     -0.140
      +0.087     -0.038     +0.157
      +0.020     +0.029     +0.006
      -0.024     -0.152     +0.021
vibration  17
      +0.356     -0.128     -0.053
      -0.746     -0.086     -0.093
      +0.307     +0.122     +0.125
      -0.144     +0.081     -0.067
      +0.060     +0.078     +0.036
      -0.102     -0.051     +0.097
      +0.202     +0.005     -0.021
      +0.175     +0.041     +0.026
      -0.084     -0.002     -0.063
      -0.063     +0.039     -0.034
vibration  18
      -0.107     +0.044     +0.011
      +0.132     -0.100     +0.007
      +0.140     -0.094     +0.152
      +0.040     -0.016     +0.017
      -0.010     -0.034     -0.014
      +0.023     +0.024     -0.019
      -0.085     +0.001     -0.001
      +0.044     +0.242     -0.055
      -0.628     -0.212     -0.334
      -0.032     +0.473     -0.236
vibration  19
      +0.023     -0.066     +0.003
      +0.023     +0.509     -0.141
      +0.061     -0.112     +0.094
      -0.018     +0.005     -0.007
      -0.035     +0.023     +0.018
      +0.054     -0.039     -0.010
      -0.026     -0.110     -0.018
      +0.032     -0.143     +0.068
      -0.435     -0.155     -0.230
      +0.022     -0.557     +0.262
vibration  20
      -0.239     +0.131     +0.062
      +0.026     -0.007     +0.020
      +0.001     -0.001     -0.000
      +0.035     -0.056     -0.530
      +0.410     +0.302     +0.158
      +0.067     -0.532     +0.241
      +0.005     -0.014     -0.066
      +0.001     -0.004     -0.000
      -0.001     -0.001     +0.000
      +0.000     +0.006     -0.003
vibration  21
      +0.030     -0.018     -0.019
      -0.023     +0.080     +0.398
      -0.008     -0.006     -0.008
      +0.009     -0.002     +0.033
      -0.035     -0.017     -0.010
      -0.007     +0.031     -0.014
      +0.038     -0.157     -0.895
      -0.001     -0.004     -0.012
      +0.001     -0.006     -0.000
      -0.001     +0.026     -0.008
vibration  22
      -0.112     -0.353     +0.233
      +0.002     +0.006     -0.003
      +0.003     -0.001     +0.000
      +0.021     -0.029     -0.377
      +0.308     +0.239     +0.117
      -0.067     +0.638     -0.296
      +0.006     -0.004     -0.006
      -0.006     +0.007     -0.000
      +0.000     -0.000     -0.001
      +0.000     -0.003     +0.001
vibration  23
      +0.190     +0.175     +0.357
      -0.004     -0.004     -0.007
      -0.004     +0.001     +0.000
      +0.025     -0.067     -0.639
      -0.473     -0.360     -0.197
      -0.006     +0.010     -0.016
      +0.010     -0.005     -0.003
      -0.000     +0.000     -0.000
      +0.001     +0.001     +0.001
      -0.000     -0.000     -0.000
vibration  24
      -0.000     -0.001     -0.000
      -0.012     -0.000     -0.008
      +0.006     +0.223     -0.098
      -0.000     +0.000     +0.000
      -0.000     -0.000     +0.000
      +0.001     -0.000     -0.000
      -0.001     -0.002     +0.002
      +0.001     -0.003     +0.002
      +0.018     -0.877     +0.413
      -0.000     +0.001     -0.001
