[Molden Format]
[FR-COORD] # Coordinates in bohr
  C    -2.517529    -0.528022    +0.123087 
  C    +0.006451    +0.744204    -0.580205 
  O    +2.199315    -0.686613    +0.004661 
  H    -4.084338    +0.691488    -0.392458 
  H    -2.727183    -2.316080    -0.865579 
  H    -2.615017    -0.887975    +2.142444 
  H    +0.079041    +1.220594    -2.589907 
  H    +0.077868    +2.848592    +0.554346 
  H    +2.020839    -1.098655    +1.822256 
  H    +0.112748    +4.484444    +1.440261 
[FREQ] # Frequencies in cm^-1
 -2611.2054
  207.8279
  267.4172
  305.7375
  395.1913
  449.7951
 1014.1548
 1052.8683
 1111.8920
 1187.1216
 1311.7334
 1385.7745
 1452.4203
 1522.4008
 1645.1704
 1673.4264
 1729.3852
 1821.9821
 1829.6109
 3081.8939
 3563.1662
 3643.5533
 3742.4052
 3753.2513
[FR-NORM-COORD] # Displacements in bohr
vibration  1
      -0.003     -0.016     -0.012
      -0.009     +0.166     +0.073
      +0.017     -0.028     -0.004
      -0.001     -0.002     +0.000
      -0.004     -0.001     +0.003
      +0.003     +0.002     -0.002
      -0.014     -0.068     -0.011
      -0.020     -0.801     -0.431
      -0.001     +0.007     +0.001
      +0.007     +0.321     +0.173
vibration  2
      -0.011     -0.017     -0.021
      +0.006     -0.058     -0.035
      +0.009     +0.001     +0.115
      +0.021     +0.238     +0.493
      -0.267     +0.251     -0.412
      +0.230     -0.488     -0.081
      +0.009     -0.048     -0.017
      -0.008     +0.009     -0.060
      +0.033     +0.127     +0.072
      -0.037     +0.082     -0.208
vibration  3
      -0.107     -0.041     -0.100
      -0.066     -0.058     -0.038
      -0.083     -0.082     -0.025
      -0.023     -0.016     -0.065
      -0.012     -0.018     -0.022
      -0.064     -0.001     -0.029
      -0.017     -0.013     -0.010
      +0.040     -0.043     +0.038
      +0.391     +0.732     +0.206
      +0.317     -0.192     +0.262
vibration  4
      -0.011     -0.265     -0.061
      -0.153     +0.084     +0.045
      -0.090     +0.251     +0.101
      -0.062     -0.146     -0.002
      +0.095     -0.065     -0.062
      +0.002     -0.134     -0.027
      -0.044     +0.026     +0.013
      +0.077     +0.036     -0.009
      -0.195     -0.172     -0.040
      +0.801     +0.104     -0.141
vibration  5
      -0.012     -0.085     -0.099
      +0.027     +0.180     +0.477
      -0.088     -0.276     -0.190
      -0.009     -0.076     -0.132
      +0.151     -0.007     -0.094
      -0.152     -0.085     -0.047
      -0.004     +0.175     +0.166
      +0.014     +0.079     +0.130
      +0.293     +0.077     +0.005
      -0.081     +0.409     -0.408
vibration  6
      +0.434     -0.079     +0.053
      +0.069     +0.341     -0.208
      -0.470     -0.279     +0.051
      -0.028     -0.181     +0.119
      +0.257     -0.046     +0.030
      +0.293     -0.048     +0.019
      +0.045     +0.087     -0.062
      +0.024     +0.092     -0.016
      -0.236     +0.168     +0.071
      -0.086     +0.045     +0.102
vibration  7
      +0.145     +0.127     +0.104
      -0.040     +0.009     +0.109
      -0.146     +0.051     -0.020
      +0.068     -0.012     -0.157
      +0.315     +0.153     -0.234
      -0.257     -0.205     -0.031
      -0.190     -0.571     -0.114
      +0.081     +0.224     -0.302
      +0.173     -0.133     -0.025
      -0.033     -0.051     +0.155
vibration  8
      -0.473     -0.032     +0.030
      +0.100     +0.290     -0.207
      +0.297     -0.193     +0.079
      -0.400     -0.278     +0.145
      +0.065     -0.057     +0.042
      +0.052     -0.091     +0.008
      +0.136     -0.093     -0.108
      +0.091     +0.241     -0.105
      +0.136     -0.101     +0.035
      -0.025     +0.211     +0.189
vibration  9
      -0.096     -0.096     +0.217
      +0.145     +0.057     -0.045
      +0.283     -0.124     -0.108
      +0.082     +0.035     -0.130
      +0.026     +0.063     -0.117
      -0.366     -0.166     +0.024
      -0.263     +0.080     -0.008
      +0.144     +0.025     +0.042
      -0.610     +0.342     -0.011
      -0.041     +0.075     +0.029
vibration  10
      +0.073     -0.309     -0.039
      +0.106     -0.023     -0.050
      -0.127     +0.007     -0.038
      +0.283     +0.235     -0.039
      -0.414     -0.097     +0.091
      -0.067     +0.128     +0.024
      +0.072     -0.171     -0.060
      -0.087     +0.291     +0.005
      +0.028     -0.011     -0.016
      +0.044     +0.527     +0.328
vibration  11
      +0.182     +0.211     -0.167
      -0.504     -0.157     -0.033
      +0.343     -0.209     +0.082
      -0.016     -0.006     +0.015
      +0.146     +0.034     -0.011
      +0.238     +0.088     -0.042
      -0.417     +0.008     -0.000
      -0.213     +0.087     +0.111
      -0.041     +0.010     +0.058
      +0.047     +0.299     +0.147
vibration  12
      -0.081     +0.190     -0.124
      +0.171     -0.480     +0.232
      -0.130     +0.195     -0.186
      -0.214     -0.139     +0.089
      +0.184     -0.014     +0.045
      +0.232     -0.005     -0.035
      +0.212     -0.236     +0.058
      +0.216     -0.023     +0.152
      -0.264     +0.181     -0.081
      -0.037     +0.275     +0.123
vibration  13
      -0.021     -0.093     -0.279
      +0.011     +0.292     +0.448
      +0.137     -0.086     -0.116
      -0.031     +0.038     +0.144
      -0.213     -0.131     +0.150
      +0.231     +0.190     -0.032
      -0.136     -0.330     +0.035
      -0.036     +0.141     -0.252
      -0.232     +0.130     -0.023
      +0.002     -0.308     -0.095
vibration  14
      +0.003     -0.085     -0.127
      -0.003     +0.002     -0.054
      -0.084     +0.074     +0.121
      +0.012     +0.018     +0.028
      -0.125     -0.066     +0.058
      +0.089     +0.076     -0.017
      -0.456     +0.093     -0.012
      +0.797     -0.036     +0.041
      +0.153     -0.094     +0.032
      -0.140     +0.028     +0.002
vibration  15
      +0.002     +0.048     -0.052
      +0.341     +0.154     -0.099
      -0.097     +0.033     +0.036
      -0.127     -0.111     +0.063
      -0.108     -0.021     +0.068
      -0.073     -0.034     -0.027
      -0.384     -0.368     -0.149
      -0.268     -0.255     +0.563
      +0.068     -0.043     +0.002
      +0.045     +0.016     -0.101
vibration  16
      +0.025     +0.126     -0.076
      +0.403     -0.252     +0.053
      -0.149     +0.061     +0.028
      -0.169     -0.151     +0.068
      -0.091     -0.048     +0.145
      -0.071     -0.133     -0.054
      -0.414     +0.368     +0.108
      -0.279     +0.171     -0.412
      +0.052     -0.028     -0.007
      +0.049     +0.016     +0.088
vibration  17
      -0.434     -0.170     +0.065
      +0.254     +0.004     -0.021
      -0.061     +0.022     +0.019
      +0.250     +0.371     -0.131
      +0.446     -0.026     -0.144
      +0.434     +0.126     +0.077
      -0.203     +0.043     -0.008
      -0.130     +0.004     -0.014
      +0.028     -0.019     -0.002
      +0.022     -0.005     -0.001
vibration  18
      -0.022     +0.080     +0.180
      +0.011     +0.032     +0.043
      +0.002     -0.004     -0.006
      -0.006     -0.276     -0.657
      -0.397     +0.152     -0.108
      +0.457     -0.216     +0.027
      -0.011     -0.022     +0.008
      -0.001     +0.007     -0.006
      -0.010     +0.005     -0.000
      -0.001     -0.015     -0.006
vibration  19
      +0.059     -0.165     +0.078
      +0.085     -0.064     +0.023
      -0.024     +0.015     -0.002
      -0.178     -0.255     +0.104
      -0.098     +0.298     -0.571
      -0.038     +0.625     +0.136
      -0.059     +0.035     +0.020
      -0.038     +0.013     -0.038
      -0.000     +0.004     -0.004
      +0.006     +0.009     +0.011
vibration  20
      -0.000     +0.001     -0.001
      -0.024     +0.014     -0.006
      -0.009     -0.088     +0.328
      +0.001     -0.000     -0.000
      -0.000     +0.001     +0.001
      +0.002     +0.001     -0.001
      -0.004     +0.000     +0.007
      -0.001     +0.003     +0.001
      +0.086     +0.210     -0.912
      -0.000     -0.001     -0.001
vibration  21
      +0.151     +0.087     -0.047
      -0.007     -0.003     -0.001
      -0.001     -0.000     +0.000
      -0.407     +0.321     -0.136
      -0.056     -0.507     -0.284
      -0.025     -0.100     +0.573
      -0.002     -0.004     +0.012
      -0.001     -0.003     -0.001
      +0.001     +0.000     -0.001
      -0.000     +0.001     +0.000
vibration  22
      -0.003     -0.006     +0.017
      +0.012     +0.072     -0.278
      -0.000     -0.001     -0.001
      -0.007     +0.009     -0.002
      -0.001     -0.011     -0.005
      -0.004     +0.004     -0.040
      -0.030     -0.225     +0.929
      +0.002     -0.002     +0.002
      +0.006     -0.006     +0.009
      -0.000     +0.006     +0.003
vibration  23
      +0.008     +0.138     +0.283
      -0.000     -0.002     +0.010
      -0.000     -0.000     -0.000
      +0.008     -0.004     +0.007
      -0.066     -0.588     -0.324
      +0.029     +0.118     -0.655
      +0.005     +0.010     -0.036
      -0.003     -0.004     -0.002
      -0.001     +0.001     -0.001
      -0.000     -0.000     +0.000
vibration  24
      -0.162     +0.245     -0.114
      +0.001     +0.002     -0.006
      +0.002     -0.000     -0.000
      +0.607     -0.475     +0.201
      -0.037     -0.308     -0.176
      -0.018     -0.061     +0.366
      -0.002     -0.007     +0.021
      -0.001     -0.002     +0.000
      +0.001     +0.000     +0.001
      -0.000     +0.000     +0.000
