[Molden Format]
[FR-COORD] # Coordinates in bohr
  C    +2.381900    +0.544010    -0.203914 
  C    +0.030626    -1.057174    +0.467618 
  O    -2.279268    -0.076858    -0.573327 
  H    +4.077882    -0.378664    +0.490184 
  H    +2.539912    +0.763748    -2.237536 
  H    +2.264593    +2.408433    +0.645389 
  H    +0.247771    -2.952515    -0.330602 
  H    -0.102773    -1.265825    +2.524666 
  H    -2.557524    +1.669671    +0.394229 
  H    -2.742945    +3.422935    +1.495566 
[FREQ] # Frequencies in cm^-1
 -1798.0418
  126.3969
  183.7127
  297.7062
  414.9134
  639.7693
  685.7332
  868.7245
  956.2604
 1041.0836
 1106.2729
 1147.9902
 1255.6926
 1314.0478
 1320.2616
 1328.2536
 1378.6653
 1453.4465
 1559.5374
 2570.6955
 2601.7311
 2736.6766
 2789.0077
 2793.0154
[FR-NORM-COORD] # Displacements in bohr
vibration  1
      +0.003     +0.001     -0.003
      +0.036     -0.003     +0.017
      -0.005     -0.043     -0.032
      -0.001     -0.005     -0.001
      -0.000     -0.000     -0.001
      -0.004     -0.003     +0.001
      -0.015     -0.001     -0.008
      -0.012     -0.003     -0.002
      -0.115     +0.664     +0.391
      +0.067     -0.526     -0.325
vibration  2
      -0.088     +0.105     +0.099
      +0.016     -0.093     -0.015
      -0.079     -0.173     +0.143
      +0.015     -0.082     -0.252
      -0.212     +0.358     +0.061
      +0.058     -0.089     +0.343
      +0.040     -0.001     -0.086
      +0.031     -0.124     -0.012
      +0.136     +0.087     -0.167
      +0.330     +0.311     -0.494
vibration  3
      -0.083     +0.082     +0.049
      +0.010     -0.147     -0.183
      -0.105     -0.008     +0.204
      -0.057     +0.277     +0.400
      +0.246     -0.233     +0.013
      -0.316     +0.142     -0.257
      +0.013     +0.008     -0.235
      +0.053     -0.229     -0.088
      +0.138     +0.058     +0.019
      +0.399     +0.156     -0.100
vibration  4
      +0.174     -0.082     -0.005
      +0.076     -0.012     -0.140
      -0.077     +0.077     +0.300
      +0.019     -0.075     +0.074
      +0.169     -0.049     +0.004
      +0.087     -0.028     -0.011
      -0.021     +0.054     -0.216
      +0.118     -0.173     -0.068
      -0.065     +0.042     +0.082
      -0.698     +0.240     -0.358
vibration  5
      -0.287     -0.048     -0.026
      +0.035     -0.318     +0.181
      +0.470     +0.297     -0.077
      +0.060     +0.225     -0.129
      -0.342     -0.041     -0.030
      -0.317     -0.009     -0.063
      -0.048     -0.114     +0.015
      -0.036     -0.176     +0.067
      +0.208     +0.089     +0.032
      -0.234     +0.083     -0.054
vibration  6
      -0.001     +0.002     -0.026
      -0.000     -0.011     -0.044
      -0.115     -0.089     +0.151
      -0.025     -0.005     +0.041
      +0.088     +0.067     +0.003
      -0.040     -0.029     +0.050
      -0.044     -0.025     +0.019
      +0.078     +0.046     -0.006
      +0.469     +0.425     -0.613
      -0.201     -0.205     +0.252
vibration  7
      -0.019     +0.088     +0.145
      -0.034     +0.151     +0.220
      +0.012     -0.065     -0.038
      -0.010     -0.098     -0.114
      -0.300     -0.327     -0.002
      +0.357     +0.192     -0.229
      +0.203     +0.262     -0.320
      -0.148     -0.411     +0.037
      -0.030     +0.059     -0.196
      +0.022     -0.075     +0.040
vibration  8
      +0.440     -0.053     +0.082
      -0.062     -0.104     +0.064
      -0.263     +0.004     -0.030
      +0.541     +0.433     -0.190
      -0.050     +0.045     +0.018
      -0.041     +0.012     -0.060
      -0.277     -0.071     +0.007
      -0.235     -0.105     +0.012
      -0.137     +0.045     -0.094
      +0.018     +0.012     +0.034
vibration  9
      +0.038     +0.113     +0.073
      -0.024     -0.194     -0.202
      -0.194     +0.027     +0.019
      +0.031     -0.001     -0.065
      -0.034     -0.060     +0.013
      +0.196     +0.115     -0.084
      +0.441     -0.160     +0.212
      -0.464     +0.143     -0.098
      +0.434     +0.001     +0.281
      -0.094     +0.086     +0.004
vibration  10
      -0.035     +0.310     -0.188
      -0.228     -0.196     +0.174
      +0.195     -0.057     +0.016
      -0.147     -0.038     +0.015
      +0.369     +0.231     -0.053
      +0.363     +0.184     -0.107
      -0.421     -0.131     +0.064
      -0.172     -0.237     +0.071
      +0.106     -0.076     +0.044
      -0.004     -0.051     -0.046
vibration  11
      -0.018     +0.032     -0.071
      +0.000     -0.273     +0.225
      -0.320     +0.219     -0.258
      -0.001     +0.032     -0.015
      +0.185     +0.090     -0.012
      +0.110     +0.017     -0.017
      +0.398     -0.140     +0.240
      +0.427     -0.295     +0.119
      -0.178     +0.144     -0.046
      +0.002     +0.122     +0.083
vibration  12
      -0.019     +0.158     +0.315
      +0.028     -0.137     -0.227
      -0.100     +0.003     -0.111
      +0.016     +0.023     +0.017
      -0.319     -0.213     +0.096
      +0.297     +0.199     -0.078
      -0.365     -0.179     +0.060
      +0.507     +0.179     -0.052
      +0.141     -0.048     +0.082
      -0.016     -0.020     -0.028
vibration  13
      -0.022     -0.167     -0.044
      -0.250     +0.165     +0.264
      -0.141     -0.057     -0.206
      +0.141     +0.177     -0.043
      +0.136     +0.079     +0.007
      -0.003     -0.097     +0.021
      +0.037     +0.270     -0.253
      +0.255     +0.057     +0.148
      +0.534     -0.209     +0.272
      -0.038     -0.112     -0.109
vibration  14
      +0.306     -0.075     -0.144
      +0.071     +0.192     +0.019
      -0.106     -0.033     -0.088
      -0.127     -0.118     +0.481
      -0.457     +0.324     -0.078
      -0.087     -0.014     -0.136
      -0.085     -0.016     +0.234
      -0.016     -0.327     -0.033
      +0.168     -0.043     +0.094
      -0.016     +0.002     -0.009
vibration  15
      +0.123     +0.050     +0.264
      +0.004     +0.095     -0.002
      -0.041     -0.015     -0.040
      +0.013     -0.463     -0.418
      +0.170     +0.108     +0.139
      -0.467     +0.216     -0.375
      -0.065     -0.004     +0.107
      +0.067     -0.118     -0.009
      +0.093     -0.035     +0.044
      -0.006     -0.015     -0.015
vibration  16
      +0.087     +0.303     -0.128
      +0.128     +0.168     +0.036
      -0.114     -0.041     -0.109
      -0.040     -0.061     -0.123
      +0.075     -0.528     -0.131
      -0.184     -0.121     +0.485
      -0.168     -0.026     +0.215
      -0.030     -0.300     -0.024
      +0.163     -0.028     +0.102
      -0.017     +0.029     +0.007
vibration  17
      -0.210     -0.194     +0.094
      -0.206     +0.328     -0.284
      +0.149     +0.113     +0.197
      +0.128     +0.229     -0.101
      +0.089     +0.005     +0.075
      +0.135     -0.048     -0.029
      +0.108     -0.045     +0.422
      +0.096     -0.328     -0.178
      +0.007     -0.186     -0.110
      +0.034     -0.272     -0.168
vibration  18
      +0.333     +0.227     -0.085
      -0.320     -0.247     +0.033
      +0.003     +0.313     +0.186
      -0.020     -0.157     +0.077
      -0.132     -0.098     -0.096
      -0.152     +0.035     +0.105
      +0.181     -0.046     -0.091
      +0.063     +0.132     +0.068
      -0.030     -0.291     -0.206
      +0.051     -0.408     -0.253
vibration  19
      -0.221     -0.094     +0.020
      +0.654     -0.039     +0.133
      -0.320     +0.299     -0.007
      -0.077     +0.017     -0.016
      +0.077     +0.063     +0.044
      +0.074     -0.013     -0.060
      -0.150     -0.020     -0.053
      -0.176     +0.003     +0.037
      +0.070     -0.274     -0.121
      +0.029     -0.295     -0.188
vibration  20
      +0.220     +0.147     -0.058
      -0.028     +0.046     -0.039
      +0.000     -0.002     +0.000
      -0.450     +0.240     -0.181
      -0.049     -0.062     +0.530
      +0.025     -0.500     -0.224
      +0.013     -0.123     -0.048
      -0.011     -0.019     +0.154
      +0.002     +0.000     +0.002
      -0.000     +0.000     +0.000
vibration  21
      -0.062     -0.051     +0.023
      +0.001     +0.288     -0.214
      +0.008     -0.010     +0.003
      +0.103     -0.045     +0.036
      +0.003     +0.007     -0.110
      -0.010     +0.101     +0.050
      +0.066     -0.539     -0.217
      -0.043     -0.074     +0.690
      +0.007     +0.002     +0.009
      +0.000     -0.000     +0.001
vibration  22
      +0.000     +0.007     +0.011
      +0.047     -0.254     -0.363
      +0.005     +0.003     +0.008
      -0.003     +0.002     +0.000
      -0.009     -0.005     -0.002
      +0.011     +0.005     -0.004
      -0.073     +0.626     +0.275
      -0.040     -0.044     +0.570
      -0.017     +0.010     -0.003
      -0.000     +0.001     +0.000
vibration  23
      -0.220     +0.369     +0.097
      +0.004     -0.008     -0.003
      +0.003     +0.002     +0.001
      +0.464     -0.261     +0.186
      +0.015     +0.004     -0.132
      +0.048     -0.623     -0.284
      -0.010     -0.006     +0.003
      +0.002     +0.001     -0.001
      +0.001     -0.001     -0.001
      -0.000     +0.000     +0.000
vibration  24
      +0.136     -0.029     +0.419
      -0.003     +0.002     -0.007
      -0.003     -0.001     +0.000
      -0.384     +0.210     -0.167
      +0.049     +0.075     -0.719
      +0.012     -0.217     -0.111
      -0.003     -0.006     -0.001
      +0.011     +0.007     -0.006
      +0.000     -0.000     +0.000
      -0.000     -0.000     -0.000
