[Molden Format]
[FR-COORD] # Coordinates in bohr
  C    +2.567053    +0.514787    -0.181514 
  C    +0.215779    -1.086397    +0.490018 
  O    -2.094115    -0.106081    -0.550927 
  H    +4.263035    -0.407887    +0.512584 
  H    +2.725065    +0.734525    -2.215136 
  H    +2.449746    +2.379210    +0.667789 
  H    +0.432924    -2.981738    -0.308202 
  H    +0.082380    -1.295048    +2.547066 
  H    -2.372371    +1.640448    +0.416629 
  H    -2.557792    +3.393712    +1.517966 
[FREQ] # Frequencies in cm^-1
 -1798.4089
  142.0617
  235.3409
  313.0555
  459.5020
  642.0964
  920.6017
 1057.2956
 1107.5453
 1257.3759
 1300.4608
 1414.8622
 1480.3940
 1538.6221
 1673.6221
 1733.7210
 1805.6308
 1824.9871
 1837.4904
 3562.3868
 3570.4504
 3679.4044
 3753.7691
 3758.4273
[FR-NORM-COORD] # Displacements in bohr
vibration  1
      -0.002     +0.000     +0.003
      -0.035     +0.004     -0.016
      +0.006     +0.042     +0.032
      +0.002     +0.005     +0.001
      +0.001     -0.000     +0.001
      +0.004     +0.003     -0.002
      +0.017     +0.001     +0.009
      +0.014     +0.004     +0.003
      +0.115     -0.664     -0.391
      -0.067     +0.526     +0.325
vibration  2
      +0.120     -0.170     -0.147
      -0.026     +0.158     +0.130
      +0.113     +0.164     -0.194
      -0.005     +0.028     +0.157
      +0.137     -0.303     -0.062
      +0.001     +0.058     -0.282
      -0.039     -0.009     +0.159
      -0.035     +0.176     +0.048
      -0.166     -0.085     +0.126
      -0.425     -0.313     +0.450
vibration  3
      -0.088     +0.098     +0.052
      -0.003     -0.117     -0.174
      -0.082     -0.009     +0.091
      -0.060     +0.292     +0.452
      +0.281     -0.319     +0.002
      -0.312     +0.170     -0.336
      +0.016     +0.001     -0.129
      +0.014     -0.118     -0.057
      +0.101     +0.018     +0.036
      +0.397     +0.035     +0.053
vibration  4
      -0.173     +0.091     -0.019
      -0.094     +0.091     +0.230
      +0.057     -0.111     -0.316
      -0.010     +0.005     -0.134
      -0.175     +0.081     -0.010
      +0.004     +0.005     +0.049
      +0.013     -0.030     +0.215
      -0.089     +0.184     +0.078
      +0.021     -0.048     -0.113
      +0.650     -0.257     +0.347
vibration  5
      +0.417     -0.010     +0.076
      -0.016     +0.368     -0.195
      -0.476     -0.263     +0.068
      -0.017     -0.198     +0.106
      +0.279     +0.015     +0.036
      +0.275     -0.011     +0.062
      +0.027     +0.093     -0.016
      +0.022     +0.126     -0.053
      -0.241     -0.086     -0.028
      +0.189     -0.062     +0.032
vibration  6
      +0.025     +0.012     +0.008
      +0.000     +0.011     -0.040
      -0.133     -0.100     +0.154
      -0.011     -0.012     +0.026
      +0.047     +0.020     +0.007
      +0.008     -0.004     +0.020
      -0.010     +0.006     -0.019
      +0.035     -0.003     -0.008
      +0.461     +0.429     -0.629
      -0.197     -0.210     +0.255
vibration  7
      +0.019     -0.035     -0.093
      +0.021     -0.143     -0.226
      -0.073     +0.025     +0.015
      -0.006     +0.086     +0.130
      +0.266     +0.307     +0.028
      -0.282     -0.144     +0.231
      -0.129     -0.253     +0.404
      +0.074     +0.484     -0.009
      +0.210     -0.024     +0.187
      -0.047     +0.049     -0.007
vibration  8
      -0.473     -0.066     -0.004
      +0.013     +0.340     -0.185
      +0.315     -0.106     +0.119
      -0.403     -0.372     +0.160
      +0.095     -0.077     +0.016
      +0.120     -0.035     +0.057
      +0.136     +0.116     -0.046
      +0.102     +0.111     -0.049
      +0.212     -0.107     +0.097
      -0.013     -0.083     -0.070
vibration  9
      -0.121     -0.191     -0.077
      +0.121     +0.089     -0.011
      +0.234     +0.053     +0.154
      -0.031     +0.046     +0.095
      +0.094     +0.143     +0.012
      -0.281     -0.149     +0.144
      -0.224     +0.028     -0.083
      +0.264     -0.018     +0.007
      -0.620     +0.100     -0.377
      +0.087     -0.034     +0.036
vibration  10
      +0.162     +0.287     -0.238
      -0.510     -0.126     +0.147
      +0.285     -0.023     +0.133
      -0.075     -0.046     +0.071
      +0.328     +0.173     -0.044
      +0.181     +0.059     +0.021
      -0.364     -0.022     -0.070
      -0.104     -0.149     +0.045
      +0.049     -0.152     -0.049
      +0.021     -0.184     -0.118
vibration  11
      -0.122     +0.220     -0.169
      +0.170     -0.377     +0.252
      -0.165     +0.077     -0.204
      -0.271     -0.244     +0.121
      +0.294     +0.037     -0.028
      +0.245     +0.036     +0.053
      +0.249     -0.098     +0.087
      +0.233     -0.112     +0.089
      -0.170     +0.209     -0.000
      -0.014     +0.225     +0.146
vibration  12
      -0.028     +0.204     +0.185
      -0.038     -0.254     -0.394
      +0.221     -0.012     +0.232
      -0.036     -0.106     -0.100
      -0.135     -0.195     +0.016
      +0.250     +0.163     -0.135
      -0.011     -0.223     +0.215
      -0.302     +0.257     -0.103
      -0.311     +0.147     -0.139
      +0.013     +0.081     +0.069
vibration  13
      -0.038     +0.068     +0.139
      +0.098     -0.174     -0.035
      -0.197     +0.409     +0.077
      -0.002     -0.031     -0.047
      -0.083     -0.112     +0.024
      +0.131     +0.077     -0.062
      +0.005     -0.096     +0.093
      +0.406     +0.072     +0.028
      +0.035     -0.363     -0.199
      +0.052     -0.469     -0.296
vibration  14
      +0.016     -0.111     -0.191
      -0.028     -0.034     +0.042
      -0.009     +0.218     +0.188
      +0.001     +0.041     +0.051
      +0.153     +0.147     -0.029
      -0.127     -0.107     +0.082
      +0.645     +0.047     +0.063
      -0.505     -0.058     -0.023
      -0.095     -0.115     -0.152
      +0.029     -0.196     -0.117
vibration  15
      +0.022     +0.154     -0.115
      +0.526     +0.009     +0.100
      -0.158     +0.074     -0.008
      -0.206     -0.216     +0.130
      -0.094     -0.149     -0.061
      -0.124     -0.057     +0.167
      -0.443     -0.052     -0.009
      -0.471     -0.105     -0.021
      +0.049     -0.114     -0.035
      +0.006     -0.081     -0.052
vibration  16
      -0.413     -0.195     +0.076
      +0.273     +0.038     +0.028
      -0.056     +0.012     -0.006
      +0.196     +0.346     -0.215
      +0.445     +0.153     +0.089
      +0.422     +0.043     -0.121
      -0.186     +0.008     -0.054
      -0.194     +0.014     -0.011
      +0.015     -0.030     -0.005
      +0.000     -0.017     -0.011
vibration  17
      -0.004     -0.078     +0.040
      +0.020     +0.238     -0.136
      +0.006     -0.002     -0.005
      -0.034     -0.055     +0.036
      -0.044     +0.239     +0.034
      -0.011     +0.086     -0.223
      -0.042     -0.206     +0.593
      +0.043     -0.622     -0.101
      +0.005     +0.008     +0.006
      +0.000     +0.002     +0.001
vibration  18
      -0.001     +0.113     +0.161
      -0.010     +0.030     +0.036
      -0.002     -0.000     -0.006
      +0.055     -0.360     -0.611
      +0.432     -0.170     +0.054
      -0.462     +0.072     -0.118
      +0.008     +0.014     +0.011
      -0.000     -0.036     +0.009
      +0.009     -0.006     +0.002
      +0.000     -0.002     -0.002
vibration  19
      +0.076     -0.131     +0.091
      +0.100     -0.114     +0.083
      -0.029     +0.016     -0.003
      -0.137     -0.266     +0.099
      -0.125     +0.574     +0.078
      -0.105     +0.223     -0.559
      -0.044     +0.063     -0.227
      -0.082     +0.220     +0.043
      +0.001     -0.016     -0.011
      +0.001     -0.009     -0.006
vibration  20
      -0.008     +0.003     -0.004
      -0.000     -0.185     +0.157
      +0.001     +0.001     +0.001
      +0.041     -0.026     +0.019
      +0.005     +0.006     -0.026
      +0.001     +0.032     +0.011
      -0.068     +0.540     +0.232
      +0.048     +0.070     -0.761
      -0.002     -0.001     -0.004
      -0.000     +0.001     +0.000
vibration  21
      +0.146     +0.100     -0.038
      -0.008     -0.018     +0.012
      -0.001     +0.000     -0.000
      -0.465     +0.257     -0.192
      -0.040     -0.056     +0.553
      +0.037     -0.523     -0.241
      -0.006     +0.035     +0.016
      +0.001     +0.002     -0.047
      +0.000     -0.000     -0.001
      -0.000     +0.000     +0.000
vibration  22
      -0.004     +0.015     +0.022
      +0.035     -0.187     -0.252
      +0.002     -0.001     +0.001
      +0.007     -0.003     +0.005
      +0.000     +0.004     -0.051
      +0.008     -0.048     -0.024
      -0.082     +0.688     +0.292
      -0.038     -0.055     +0.570
      -0.005     +0.005     +0.002
      -0.000     -0.000     -0.000
vibration  23
      +0.160     -0.264     -0.065
      +0.002     -0.012     -0.011
      -0.001     -0.000     -0.000
      -0.497     +0.272     -0.207
      -0.007     -0.017     +0.130
      -0.043     +0.651     +0.300
      -0.002     +0.047     +0.018
      -0.003     -0.002     +0.023
      -0.001     +0.001     +0.001
      +0.000     -0.000     -0.000
vibration  24
      -0.095     +0.018     -0.301
      +0.002     -0.007     -0.015
      +0.001     -0.000     +0.000
      +0.400     -0.222     +0.162
      -0.057     -0.080     +0.763
      -0.018     +0.241     +0.107
      -0.001     +0.030     +0.013
      -0.007     -0.007     +0.044
      -0.000     +0.001     +0.000
      +0.000     -0.000     -0.000
