[Molden Format]
[FR-COORD] # Coordinates in bohr
  C    +2.760801    -0.334413    -0.000523 
  C    +0.180425    +1.022118    -0.001292 
  O    -1.766166    -0.875729    +0.001975 
  H    +4.280847    +1.043729    -0.002362 
  H    +2.944484    -1.516405    +1.666297 
  H    +2.943640    -1.519935    -1.664925 
  H    +0.039604    +2.242246    +1.667929 
  H    +0.038294    +2.237841    -1.673602 
  H    -3.479903    +0.183925    +0.000148 
  H    -5.145321    +1.428599    -0.001692 
[FREQ] # Frequencies in cm^-1
 -1786.5929
  120.2426
  226.1672
  275.1908
  447.7622
  636.3870
  954.2542
 1040.3643
 1121.2099
 1271.8246
 1342.3284
 1393.6713
 1485.0578
 1506.3856
 1674.7010
 1735.8581
 1819.6190
 1823.8764
 1849.8259
 3546.8544
 3574.1002
 3659.0643
 3758.7156
 3760.7731
[FR-NORM-COORD] # Displacements in bohr
vibration  1
      -0.001     +0.010     -0.000
      -0.023     -0.033     +0.000
      -0.034     +0.038     -0.000
      +0.006     -0.003     -0.000
      -0.003     +0.000     -0.002
      -0.003     +0.000     +0.002
      +0.006     +0.007     -0.004
      +0.006     +0.007     +0.004
      +0.652     -0.425     +0.001
      -0.507     +0.366     -0.001
vibration  2
      -0.000     -0.000     -0.273
      +0.000     +0.000     +0.279
      +0.000     +0.001     +0.361
      +0.000     -0.000     -0.052
      +0.056     -0.095     -0.152
      -0.057     +0.094     -0.153
      +0.064     -0.059     +0.131
      -0.063     +0.059     +0.131
      +0.000     -0.000     -0.227
      -0.000     -0.001     -0.737
vibration  3
      -0.000     -0.000     +0.022
      -0.000     -0.000     -0.254
      +0.000     +0.000     +0.214
      +0.000     +0.001     +0.559
      -0.270     -0.370     -0.226
      +0.269     +0.369     -0.226
      +0.005     +0.088     -0.137
      -0.005     -0.088     -0.137
      -0.000     +0.000     +0.051
      -0.000     -0.000     +0.031
vibration  4
      -0.078     -0.219     +0.000
      +0.134     +0.211     -0.000
      +0.135     +0.291     -0.001
      +0.061     -0.156     -0.000
      -0.097     -0.076     -0.001
      -0.097     -0.077     +0.001
      +0.074     +0.062     +0.003
      +0.074     +0.062     -0.003
      -0.019     -0.003     -0.000
      -0.508     -0.667     +0.001
vibration  5
      +0.438     +0.098     -0.000
      +0.111     -0.358     +0.000
      -0.491     +0.142     +0.000
      -0.021     +0.195     -0.000
      +0.266     +0.056     +0.004
      +0.266     +0.056     -0.004
      +0.063     -0.091     -0.006
      +0.063     -0.091     +0.006
      -0.079     +0.249     -0.000
      -0.327     -0.102     +0.000
vibration  6
      +0.000     -0.000     -0.016
      +0.000     +0.000     +0.044
      -0.000     +0.000     +0.175
      +0.000     -0.000     -0.014
      +0.019     -0.012     -0.015
      -0.019     +0.012     -0.015
      +0.006     +0.038     -0.013
      -0.006     -0.038     -0.013
      -0.000     -0.002     -0.900
      +0.000     +0.001     +0.389
vibration  7
      +0.000     -0.000     -0.139
      -0.000     -0.000     -0.243
      -0.000     +0.000     +0.109
      +0.000     +0.000     +0.174
      -0.351     +0.233     +0.165
      +0.351     -0.232     +0.165
      +0.243     -0.359     +0.215
      -0.243     +0.360     +0.214
      -0.000     -0.000     -0.046
      +0.000     +0.000     +0.009
vibration  8
      +0.461     -0.080     +0.000
      -0.069     +0.366     -0.000
      -0.246     -0.094     +0.000
      +0.331     -0.232     +0.000
      +0.011     -0.075     -0.017
      +0.011     -0.074     +0.017
      -0.059     +0.106     +0.001
      -0.059     +0.106     -0.002
      -0.389     -0.445     +0.001
      -0.039     +0.131     -0.000
vibration  9
      -0.156     -0.226     +0.000
      -0.042     -0.046     +0.000
      +0.107     +0.319     -0.001
      -0.382     +0.305     -0.000
      +0.257     +0.026     +0.031
      +0.257     +0.026     -0.031
      +0.189     +0.011     +0.002
      +0.189     +0.011     -0.002
      -0.282     -0.521     +0.001
      +0.102     +0.019     -0.000
vibration  10
      +0.250     -0.298     +0.000
      -0.556     +0.051     +0.000
      +0.182     +0.233     -0.000
      -0.005     +0.007     +0.000
      +0.228     -0.076     -0.000
      +0.228     -0.076     +0.000
      -0.329     +0.015     -0.002
      -0.329     +0.015     +0.003
      +0.253     +0.146     -0.000
      +0.130     -0.117     +0.000
vibration  11
      -0.000     -0.000     -0.244
      +0.000     +0.001     +0.445
      -0.000     -0.001     -0.183
      -0.000     +0.000     +0.141
      -0.230     +0.162     +0.070
      +0.230     -0.162     +0.070
      +0.301     +0.393     -0.126
      -0.301     -0.393     -0.125
      -0.000     +0.000     +0.010
      -0.000     +0.000     -0.005
vibration  12
      -0.080     -0.269     +0.000
      +0.080     +0.480     -0.001
      +0.014     -0.478     +0.001
      -0.241     +0.164     -0.000
      +0.240     +0.010     +0.037
      +0.240     +0.010     -0.037
      +0.054     +0.147     +0.001
      +0.054     +0.148     -0.001
      -0.022     +0.328     -0.001
      -0.262     +0.165     -0.000
vibration  13
      -0.008     -0.022     -0.000
      +0.022     +0.220     -0.000
      -0.481     -0.067     +0.000
      -0.005     -0.001     +0.000
      +0.059     +0.002     -0.001
      +0.060     +0.002     +0.001
      +0.211     +0.124     -0.022
      +0.211     +0.124     +0.021
      +0.477     -0.110     +0.000
      +0.466     -0.361     +0.001
vibration  14
      -0.000     -0.000     -0.321
      +0.000     +0.000     +0.174
      +0.000     +0.000     +0.074
      -0.000     +0.000     +0.112
      -0.238     +0.178     +0.053
      +0.238     -0.178     +0.053
      -0.577     +0.016     -0.009
      +0.577     -0.017     -0.009
      -0.000     +0.000     +0.006
      -0.000     +0.000     +0.002
vibration  15
      +0.068     -0.181     +0.000
      +0.506     +0.073     -0.000
      -0.174     +0.053     -0.000
      -0.250     +0.241     -0.000
      -0.156     +0.100     +0.126
      -0.156     +0.100     -0.126
      -0.455     -0.001     -0.032
      -0.455     -0.001     +0.033
      +0.040     -0.134     +0.000
      +0.089     -0.062     +0.000
vibration  16
      +0.440     -0.149     +0.000
      -0.306     +0.009     +0.000
      +0.059     -0.044     +0.000
      -0.241     +0.365     -0.000
      -0.427     +0.029     +0.114
      -0.427     +0.029     -0.114
      +0.212     +0.053     -0.010
      +0.212     +0.053     +0.009
      +0.010     +0.073     -0.000
      -0.027     +0.018     -0.000
vibration  17
      -0.000     -0.000     -0.195
      +0.000     -0.000     -0.046
      -0.000     -0.000     +0.004
      +0.000     +0.001     +0.715
      +0.422     +0.209     +0.051
      -0.422     -0.209     +0.052
      +0.012     -0.020     -0.002
      -0.012     +0.020     -0.002
      +0.000     +0.000     +0.001
      -0.000     +0.000     +0.000
vibration  18
      -0.024     -0.172     +0.000
      -0.086     +0.119     -0.000
      -0.002     +0.010     -0.000
      +0.148     -0.211     +0.000
      +0.034     +0.446     +0.343
      +0.033     +0.445     -0.344
      +0.067     -0.266     +0.221
      +0.067     -0.266     -0.220
      +0.020     +0.000     -0.000
      +0.007     -0.005     +0.000
vibration  19
      +0.048     +0.074     -0.000
      +0.035     +0.295     -0.000
      -0.051     -0.003     +0.000
      -0.116     +0.164     -0.000
      -0.031     -0.256     -0.191
      -0.031     -0.256     +0.192
      +0.001     -0.432     +0.373
      +0.000     -0.433     -0.372
      +0.042     -0.018     +0.000
      +0.023     -0.017     +0.000
vibration  20
      -0.002     -0.008     +0.000
      -0.033     +0.237     -0.000
      -0.002     +0.001     -0.000
      +0.024     +0.026     -0.000
      +0.005     -0.011     +0.011
      +0.005     -0.011     -0.011
      +0.043     -0.398     -0.557
      +0.044     -0.396     +0.558
      +0.008     -0.004     +0.000
      -0.001     +0.000     +0.000
vibration  21
      +0.162     -0.082     +0.000
      -0.010     +0.014     -0.000
      -0.001     -0.000     +0.000
      -0.424     -0.388     +0.001
      -0.047     +0.324     -0.459
      -0.047     +0.325     +0.459
      -0.001     -0.013     -0.021
      -0.001     -0.013     +0.021
      +0.000     -0.000     +0.000
      +0.000     -0.000     +0.000
vibration  22
      -0.000     -0.000     -0.021
      +0.000     +0.000     +0.317
      +0.000     +0.000     -0.000
      +0.000     -0.000     -0.002
      -0.001     -0.022     +0.033
      +0.001     +0.022     +0.033
      +0.047     -0.393     -0.540
      -0.048     +0.391     -0.541
      -0.000     -0.000     -0.002
      +0.000     -0.000     -0.000
vibration  23
      +0.145     +0.281     -0.001
      -0.001     +0.004     -0.000
      -0.002     +0.000     +0.000
      -0.568     -0.519     +0.001
      +0.036     -0.223     +0.322
      +0.035     -0.223     -0.321
      +0.003     -0.009     -0.008
      +0.003     -0.009     +0.008
      +0.000     -0.001     +0.000
      -0.000     +0.000     +0.000
vibration  24
      -0.000     -0.001     -0.316
      -0.000     -0.000     -0.017
      +0.000     +0.000     +0.000
      +0.001     +0.001     -0.005
      +0.057     -0.386     +0.544
      -0.056     +0.388     +0.544
      -0.007     +0.024     +0.032
      +0.007     -0.024     +0.032
      +0.000     +0.000     +0.000
      +0.000     +0.000     +0.000
