[Molden Format]
[FR-COORD] # Coordinates in bohr
  C    -2.297204    -0.492680    +0.208365 
  C    +0.226776    +0.779546    -0.494927 
  O    +2.419640    -0.651271    +0.089939 
  H    -3.864013    +0.726830    -0.307180 
  H    -2.506858    -2.280738    -0.780301 
  H    -2.394692    -0.852633    +2.227722 
  H    +0.299366    +1.255936    -2.504629 
  H    +0.298193    +2.883934    +0.639624 
  H    +2.241164    -1.063313    +1.907534 
  H    +0.333073    +4.519786    +1.525539 
[FREQ] # Frequencies in cm^-1
 -2141.9721
  156.5901
  366.4137
  371.6896
  430.2392
  444.6963
  770.7443
  883.3551
 1015.0355
 1040.9531
 1110.5835
 1142.2347
 1227.9090
 1315.4751
 1319.7887
 1351.7612
 1520.4963
 1631.1327
 1667.8077
 2566.3797
 2691.0548
 2780.1248
 2788.5290
 4230.5011
[FR-NORM-COORD] # Displacements in bohr
vibration  1
      -0.001     -0.011     -0.011
      -0.005     +0.233     +0.110
      +0.013     -0.025     -0.004
      -0.002     -0.004     +0.001
      +0.002     -0.000     -0.000
      +0.001     +0.000     -0.003
      -0.012     -0.052     -0.002
      -0.018     -0.730     -0.391
      +0.001     +0.009     +0.002
      +0.009     +0.435     +0.234
vibration  2
      +0.004     +0.013     +0.011
      -0.003     +0.076     +0.100
      -0.017     -0.063     -0.201
      -0.021     -0.230     -0.480
      +0.272     -0.232     +0.375
      -0.241     +0.450     +0.072
      -0.021     +0.139     +0.066
      +0.028     -0.035     +0.166
      +0.002     -0.107     -0.070
      +0.042     -0.075     +0.207
vibration  3
      +0.101     +0.072     +0.058
      +0.079     +0.017     -0.017
      +0.059     +0.001     +0.008
      +0.048     +0.051     +0.059
      -0.019     +0.016     +0.063
      +0.096     +0.073     +0.036
      +0.054     +0.020     -0.003
      -0.166     +0.028     -0.050
      -0.371     -0.673     -0.189
      -0.504     +0.097     -0.135
vibration  4
      +0.137     -0.133     -0.010
      -0.067     +0.252     +0.031
      -0.302     -0.019     +0.091
      -0.102     -0.240     +0.045
      +0.282     -0.052     -0.060
      +0.126     -0.152     -0.018
      -0.013     +0.089     +0.009
      +0.195     +0.157     -0.072
      -0.262     -0.256     -0.053
      +0.535     +0.201     -0.245
vibration  5
      -0.277     -0.059     -0.002
      -0.083     -0.249     +0.116
      +0.400     +0.390     -0.010
      +0.024     +0.118     -0.095
      -0.244     +0.005     -0.030
      -0.286     -0.014     -0.007
      -0.089     -0.120     +0.042
      +0.091     -0.085     -0.020
      -0.061     -0.340     -0.117
      +0.423     -0.017     -0.082
vibration  6
      -0.073     -0.016     +0.010
      +0.044     +0.040     +0.428
      +0.091     -0.194     -0.216
      +0.034     +0.020     -0.131
      +0.076     +0.050     -0.122
      -0.271     -0.115     -0.028
      -0.052     +0.084     +0.190
      -0.022     +0.132     -0.001
      +0.264     +0.082     +0.000
      -0.194     +0.368     -0.522
vibration  7
      +0.109     +0.135     +0.176
      +0.001     +0.059     +0.067
      -0.055     +0.007     -0.044
      +0.082     +0.012     -0.134
      +0.366     +0.186     -0.220
      -0.287     -0.200     +0.010
      -0.285     -0.532     -0.116
      +0.095     +0.177     -0.185
      -0.020     -0.070     -0.029
      -0.104     -0.121     +0.278
vibration  8
      -0.412     +0.171     -0.017
      +0.102     +0.113     -0.026
      +0.281     -0.086     -0.010
      -0.585     -0.353     +0.185
      +0.103     +0.017     +0.027
      +0.008     -0.070     -0.018
      +0.291     -0.105     -0.046
      +0.147     +0.109     -0.077
      +0.101     -0.067     -0.006
      -0.101     -0.002     +0.095
vibration  9
      -0.039     +0.180     +0.094
      -0.030     -0.143     -0.263
      +0.231     -0.081     +0.183
      -0.125     -0.080     -0.013
      +0.239     +0.120     -0.083
      -0.072     -0.069     +0.011
      -0.530     +0.417     -0.015
      +0.209     -0.257     +0.083
      -0.176     +0.089     +0.053
      -0.112     -0.081     -0.174
vibration  10
      -0.017     -0.294     +0.191
      +0.235     +0.283     -0.222
      +0.013     -0.074     +0.034
      +0.116     -0.007     -0.017
      -0.361     -0.106     +0.098
      -0.450     -0.193     +0.061
      +0.048     +0.249     -0.086
      +0.259     +0.206     -0.185
      -0.152     +0.072     +0.014
      -0.104     +0.049     +0.142
vibration  11
      +0.011     +0.077     +0.288
      +0.012     -0.225     -0.144
      -0.255     +0.228     -0.103
      +0.051     +0.027     -0.020
      +0.270     +0.119     -0.071
      -0.269     -0.166     +0.086
      +0.590     +0.101     +0.004
      +0.066     -0.301     +0.084
      -0.028     +0.036     -0.035
      -0.036     -0.120     -0.170
vibration  12
      +0.012     +0.072     +0.150
      -0.016     +0.058     -0.140
      +0.208     -0.213     +0.038
      -0.007     -0.002     +0.019
      +0.126     +0.082     -0.040
      -0.185     -0.072     +0.043
      +0.058     +0.209     -0.020
      -0.777     +0.108     -0.192
      +0.001     -0.016     +0.019
      +0.293     -0.046     +0.064
vibration  13
      +0.085     +0.015     +0.024
      +0.165     +0.233     -0.188
      +0.032     -0.037     -0.007
      -0.074     -0.116     +0.053
      -0.142     +0.017     +0.030
      -0.191     -0.036     -0.006
      -0.075     -0.370     -0.218
      -0.189     -0.192     +0.664
      -0.111     +0.058     +0.003
      +0.069     +0.218     -0.145
vibration  14
      +0.057     +0.143     +0.258
      +0.012     -0.020     +0.013
      -0.024     +0.012     -0.003
      -0.048     -0.343     -0.620
      -0.395     +0.242     -0.112
      +0.338     -0.229     +0.080
      +0.027     +0.018     +0.017
      -0.039     -0.010     -0.015
      +0.014     -0.008     -0.002
      +0.009     -0.009     -0.001
vibration  15
      +0.152     -0.238     +0.096
      -0.031     -0.013     +0.011
      -0.006     -0.002     +0.002
      -0.080     -0.257     +0.154
      -0.131     +0.250     -0.559
      -0.131     +0.612     +0.161
      +0.029     +0.025     +0.016
      +0.034     +0.004     -0.038
      +0.011     -0.001     +0.001
      -0.010     -0.022     -0.001
vibration  16
      -0.438     -0.265     +0.200
      -0.189     +0.184     -0.174
      +0.208     -0.127     +0.037
      +0.222     +0.303     -0.219
      +0.258     -0.015     -0.213
      +0.297     +0.083     +0.162
      +0.135     -0.029     -0.120
      +0.081     +0.074     +0.172
      -0.043     +0.014     +0.019
      -0.023     +0.183     +0.054
vibration  17
      +0.354     +0.126     -0.044
      -0.747     +0.074     -0.109
      +0.246     -0.152     +0.087
      +0.067     -0.074     +0.037
      -0.094     +0.040     +0.098
      -0.150     -0.071     -0.072
      +0.199     +0.002     -0.049
      +0.170     +0.043     +0.065
      +0.158     -0.094     +0.032
      -0.053     +0.095     +0.037
vibration  18
      -0.056     -0.087     +0.012
      -0.015     +0.507     +0.038
      -0.005     -0.049     +0.094
      +0.047     +0.046     -0.026
      -0.042     -0.044     -0.001
      +0.015     -0.001     +0.020
      -0.041     -0.059     -0.065
      +0.001     -0.259     -0.083
      +0.308     -0.189     +0.014
      -0.016     -0.614     -0.345
vibration  19
      +0.028     +0.009     -0.036
      -0.152     +0.136     +0.268
      +0.237     -0.088     -0.187
      +0.001     -0.007     -0.002
      -0.033     -0.007     +0.017
      +0.028     +0.010     -0.018
      +0.137     -0.141     +0.137
      -0.004     -0.052     -0.079
      -0.689     +0.392     -0.007
      -0.009     -0.265     -0.129
vibration  20
      -0.239     -0.130     +0.069
      +0.028     +0.009     +0.011
      +0.001     +0.001     -0.000
      +0.411     -0.312     +0.132
      +0.063     +0.492     +0.270
      +0.035     +0.101     -0.552
      +0.003     +0.012     -0.042
      +0.001     +0.004     -0.000
      -0.003     +0.001     -0.001
      +0.000     -0.005     -0.003
vibration  21
      +0.024     +0.014     -0.017
      -0.017     -0.108     +0.403
      +0.001     +0.006     -0.017
      -0.027     +0.012     -0.006
      -0.004     -0.015     -0.008
      +0.011     +0.003     +0.018
      +0.032     +0.209     -0.880
      -0.002     +0.005     -0.014
      -0.041     +0.024     +0.002
      -0.000     -0.023     -0.008
vibration  22
      -0.012     -0.190     -0.396
      +0.000     +0.003     +0.007
      -0.000     -0.000     -0.000
      -0.005     +0.009     +0.008
      +0.063     +0.552     +0.314
      -0.027     -0.103     +0.623
      -0.009     -0.005     +0.005
      +0.006     +0.007     +0.001
      +0.002     -0.000     +0.000
      -0.000     -0.002     -0.001
vibration  23
      +0.223     -0.344     +0.159
      -0.004     +0.007     -0.007
      -0.005     -0.001     +0.001
      -0.567     +0.448     -0.190
      +0.028     +0.305     +0.161
      +0.009     +0.070     -0.350
      +0.005     +0.002     +0.005
      +0.003     +0.003     -0.000
      +0.000     -0.002     -0.000
      -0.000     -0.001     -0.001
vibration  24
      -0.000     +0.001     -0.001
      -0.014     +0.006     +0.003
      -0.009     -0.062     +0.236
      -0.001     -0.000     -0.000
      -0.000     -0.000     +0.000
      +0.001     +0.000     -0.000
      +0.001     +0.000     -0.003
      -0.001     +0.002     +0.000
      +0.082     +0.220     -0.941
      -0.000     -0.002     -0.001
