[Molden Format]
[FR-COORD] # Coordinates in bohr
  C    -2.215382    -0.045936    -0.424564 
  C    +0.371564    -1.060909    +0.438991 
  O    +2.414574    +0.660008    -0.023288 
  H    -2.645478    +2.062130    +0.737518 
  H    -3.761076    -1.291984    +0.092554 
  H    -2.278051    +0.405976    -2.426592 
  H    +0.332907    -1.390341    +2.479249 
  H    +0.720879    -2.894109    -0.472593 
  H    +2.400825    +0.890859    -1.882210 
  H    -2.959797    +3.570626    +1.571063 
[FREQ] # Frequencies in cm^-1
 -1997.4556
  112.3660
  261.4506
  277.0010
  421.7578
  544.9104
  747.9763
  858.6469
  937.7552
 1005.1814
 1078.6139
 1117.9790
 1138.6482
 1151.3132
 1282.5642
 1330.3399
 1373.7442
 1421.9963
 1516.5032
 2587.0862
 2630.9586
 2731.1267
 2795.2826
 3077.7793
[FR-NORM-COORD] # Displacements in bohr
vibration  1
      -0.053     +0.238     +0.127
      -0.004     -0.012     -0.009
      -0.002     -0.000     +0.001
      +0.159     -0.766     -0.423
      +0.035     -0.029     -0.036
      +0.011     -0.060     +0.003
      +0.002     -0.001     -0.002
      +0.001     +0.002     -0.002
      -0.000     -0.001     +0.000
      -0.063     +0.306     +0.169
vibration  2
      +0.045     +0.111     -0.080
      -0.025     +0.144     +0.175
      +0.120     -0.132     -0.242
      -0.203     -0.111     +0.166
      +0.035     -0.086     -0.299
      +0.167     +0.256     +0.010
      -0.028     +0.248     +0.102
      -0.060     -0.036     +0.245
      +0.095     -0.275     -0.114
      -0.391     -0.245     +0.340
vibration  3
      +0.044     +0.105     +0.113
      +0.045     -0.002     +0.011
      +0.295     -0.308     -0.035
      -0.169     +0.066     -0.049
      +0.040     +0.014     +0.042
      +0.011     +0.002     +0.036
      +0.061     -0.051     -0.003
      -0.085     +0.002     -0.047
      -0.377     +0.485     +0.065
      -0.529     +0.097     -0.247
vibration  4
      +0.106     -0.068     -0.172
      -0.039     -0.044     +0.194
      -0.136     -0.035     -0.114
      +0.148     -0.059     +0.011
      -0.028     +0.003     -0.215
      +0.209     +0.043     -0.061
      -0.051     +0.154     +0.107
      +0.022     -0.089     +0.233
      -0.515     +0.407     +0.015
      +0.435     -0.088     +0.176
vibration  5
      -0.231     -0.064     -0.206
      -0.084     +0.286     -0.121
      +0.392     -0.163     +0.111
      -0.044     -0.027     -0.075
      +0.041     -0.057     +0.254
      -0.358     -0.276     -0.133
      -0.158     +0.246     -0.032
      -0.045     +0.044     +0.095
      +0.097     +0.190     +0.070
      +0.131     -0.205     +0.308
vibration  6
      +0.273     +0.166     -0.135
      +0.036     -0.167     +0.034
      -0.214     +0.066     -0.019
      +0.209     +0.154     -0.175
      -0.049     +0.421     +0.294
      +0.076     -0.336     -0.147
      -0.010     -0.070     +0.013
      +0.038     -0.061     +0.005
      -0.081     -0.062     -0.017
      -0.334     -0.233     +0.329
vibration  7
      +0.093     -0.024     -0.052
      +0.083     -0.218     -0.234
      -0.100     +0.014     +0.054
      +0.262     -0.127     +0.173
      -0.009     +0.128     +0.153
      -0.350     +0.388     +0.084
      -0.202     +0.300     -0.038
      +0.226     -0.266     +0.316
      +0.083     +0.112     +0.033
      -0.158     +0.014     -0.176
vibration  8
      -0.380     -0.168     +0.029
      +0.071     -0.077     +0.052
      +0.231     +0.060     -0.023
      +0.020     -0.037     -0.073
      -0.616     +0.402     -0.173
      +0.085     +0.036     +0.026
      +0.296     +0.005     +0.038
      +0.203     -0.015     +0.050
      +0.138     +0.107     -0.003
      -0.024     -0.067     +0.005
vibration  9
      +0.036     +0.023     +0.145
      -0.040     -0.110     -0.268
      -0.210     -0.022     +0.050
      -0.059     +0.097     -0.007
      +0.051     -0.089     -0.065
      +0.251     -0.192     +0.009
      +0.342     +0.321     -0.051
      -0.379     -0.248     +0.139
      +0.397     +0.312     +0.060
      +0.001     +0.073     +0.073
vibration  10
      +0.115     -0.246     +0.094
      -0.231     +0.275     -0.002
      +0.061     +0.011     -0.035
      +0.469     -0.235     +0.142
      -0.090     +0.110     +0.102
      +0.252     +0.046     +0.084
      -0.152     +0.059     -0.020
      -0.359     +0.171     -0.178
      +0.073     +0.050     -0.009
      -0.081     -0.302     -0.249
vibration  11
      +0.063     +0.032     -0.227
      +0.084     +0.051     +0.187
      -0.117     -0.042     +0.093
      -0.023     -0.088     -0.232
      +0.085     +0.041     +0.105
      -0.360     +0.334     -0.017
      +0.575     -0.045     +0.091
      -0.322     +0.009     -0.034
      -0.060     -0.055     +0.036
      +0.076     -0.282     -0.112
vibration  12
      +0.100     -0.016     +0.020
      +0.053     -0.226     +0.057
      +0.244     +0.347     -0.101
      -0.402     -0.123     -0.084
      -0.066     +0.178     +0.113
      -0.002     +0.076     +0.034
      -0.358     -0.243     -0.003
      -0.437     -0.251     +0.140
      +0.063     +0.066     -0.060
      +0.140     -0.088     -0.044
vibration  13
      -0.184     -0.034     +0.021
      +0.016     -0.120     +0.112
      +0.193     +0.218     -0.042
      +0.544     +0.313     -0.162
      +0.028     -0.300     -0.299
      -0.220     -0.005     +0.007
      -0.049     -0.204     +0.031
      -0.250     -0.136     +0.112
      -0.001     +0.008     -0.034
      -0.185     +0.088     +0.140
vibration  14
      -0.017     +0.146     -0.262
      +0.036     -0.049     +0.108
      +0.061     +0.091     +0.020
      +0.060     -0.264     +0.671
      -0.026     +0.087     -0.098
      -0.171     -0.350     -0.220
      +0.185     -0.089     +0.045
      -0.171     -0.051     +0.032
      -0.052     -0.042     -0.004
      -0.045     +0.217     -0.105
vibration  15
      -0.128     +0.076     -0.157
      -0.251     +0.111     +0.152
      -0.057     -0.064     -0.186
      +0.061     -0.037     +0.056
      +0.167     -0.095     +0.274
      +0.188     +0.119     -0.062
      +0.100     -0.510     -0.002
      +0.236     -0.016     +0.336
      +0.342     +0.283     -0.032
      -0.011     -0.020     -0.033
vibration  16
      +0.305     +0.092     +0.190
      -0.002     +0.050     +0.209
      -0.187     -0.148     -0.174
      -0.054     -0.017     -0.041
      -0.064     +0.102     -0.411
      -0.429     -0.198     +0.058
      -0.164     -0.075     +0.092
      +0.095     +0.140     -0.086
      +0.349     +0.282     -0.015
      +0.056     -0.161     -0.079
vibration  17
      +0.007     +0.251     +0.258
      -0.048     +0.225     -0.335
      +0.035     +0.011     +0.130
      +0.012     -0.042     -0.024
      -0.010     +0.008     -0.212
      -0.022     -0.207     +0.057
      +0.106     -0.219     -0.225
      +0.072     -0.155     +0.406
      -0.237     -0.197     +0.025
      +0.080     -0.380     -0.206
vibration  18
      -0.289     +0.436     +0.055
      -0.100     -0.417     +0.139
      +0.134     +0.128     -0.045
      +0.056     -0.034     +0.015
      +0.161     -0.158     +0.053
      +0.105     -0.073     -0.048
      -0.017     +0.245     +0.152
      +0.149     -0.018     -0.246
      +0.046     +0.044     -0.031
      +0.073     -0.415     -0.240
vibration  19
      +0.340     -0.138     +0.035
      -0.745     -0.178     -0.047
      +0.283     +0.196     +0.015
      -0.069     +0.013     -0.033
      +0.062     +0.054     -0.062
      -0.134     +0.002     +0.056
      +0.247     +0.078     +0.010
      +0.159     +0.014     -0.011
      -0.065     -0.053     -0.039
      -0.007     +0.111     +0.069
vibration  20
      -0.023     -0.029     -0.027
      -0.052     +0.344     -0.084
      -0.004     -0.008     +0.003
      +0.007     -0.008     -0.001
      +0.071     +0.066     -0.029
      +0.010     -0.029     +0.111
      -0.010     -0.091     +0.498
      +0.129     -0.680     -0.332
      -0.009     -0.012     +0.010
      -0.002     +0.007     +0.004
vibration  21
      +0.243     +0.090     +0.222
      -0.036     +0.063     -0.023
      -0.003     -0.001     +0.001
      -0.008     +0.004     -0.002
      -0.486     -0.381     +0.158
      -0.027     +0.150     -0.654
      -0.006     -0.012     +0.074
      +0.024     -0.106     -0.051
      -0.001     -0.002     +0.000
      +0.006     -0.022     -0.011
vibration  22
      -0.003     -0.001     -0.008
      -0.041     +0.124     +0.424
      -0.004     -0.003     -0.018
      +0.005     -0.005     -0.000
      +0.005     +0.002     -0.001
      -0.012     +0.006     -0.006
      +0.014     +0.111     -0.745
      +0.085     -0.421     -0.225
      +0.019     +0.012     +0.014
      -0.000     +0.001     +0.001
vibration  23
      +0.202     +0.226     -0.325
      -0.005     -0.004     +0.010
      -0.004     -0.000     -0.001
      -0.005     -0.005     +0.008
      -0.487     -0.398     +0.171
      +0.011     -0.137     +0.598
      +0.010     -0.003     -0.002
      +0.000     -0.001     -0.001
      -0.001     +0.001     -0.000
      +0.001     +0.000     -0.002
vibration  24
      -0.001     +0.000     -0.001
      +0.021     +0.021     +0.004
      -0.018     -0.058     +0.334
      +0.000     -0.001     -0.000
      +0.001     +0.001     -0.001
      -0.001     +0.000     +0.000
      +0.003     +0.003     -0.011
      +0.002     -0.010     -0.007
      -0.003     +0.118     -0.932
      -0.000     +0.000     +0.000
