[Molden Format]
[FR-COORD] # Coordinates in bohr
  C    +2.359613    -0.139742    -0.476911 
  C    -0.223729    -1.135293    +0.421316 
  O    -2.290870    +0.484800    -0.250024 
  H    +2.847140    +1.939594    +0.703014 
  H    +3.900277    -1.408663    -0.001485 
  H    +2.380645    +0.339949    -2.471923 
  H    -0.158123    -1.464465    +2.467905 
  H    -0.599774    -2.960177    -0.480311 
  H    -1.919553    +2.087774    +0.644465 
  H    +3.198534    +3.437092    +1.563646 
[FREQ] # Frequencies in cm^-1
 -2657.6172
  136.1174
  253.8503
  324.6305
  460.5521
  666.0354
  960.0122
 1066.9285
 1127.8647
 1222.0392
 1305.9632
 1338.3284
 1450.9136
 1531.4797
 1581.2043
 1595.1457
 1679.3777
 1757.1142
 1814.3709
 3080.1123
 3552.7757
 3619.5663
 3667.5580
 3764.0426
[FR-NORM-COORD] # Displacements in bohr
vibration  1
      +0.045     +0.173     +0.095
      -0.001     -0.015     -0.010
      +0.001     -0.001     +0.001
      -0.187     -0.788     -0.452
      -0.036     -0.043     -0.041
      -0.014     -0.071     -0.007
      -0.001     +0.001     -0.002
      -0.006     +0.001     +0.001
      +0.001     +0.001     -0.000
      +0.061     +0.253     +0.145
vibration  2
      -0.065     +0.139     -0.124
      +0.046     +0.163     +0.228
      -0.140     -0.234     -0.153
      +0.160     -0.088     +0.115
      -0.030     -0.057     -0.257
      -0.150     +0.202     +0.001
      +0.042     +0.200     +0.090
      +0.049     -0.029     +0.206
      -0.062     +0.054     -0.293
      +0.449     -0.290     +0.359
vibration  3
      -0.067     -0.027     -0.117
      +0.027     -0.084     +0.028
      +0.081     +0.029     +0.189
      -0.133     -0.026     +0.036
      +0.019     +0.028     -0.065
      -0.056     +0.035     -0.024
      +0.051     -0.006     +0.012
      -0.036     -0.026     +0.030
      +0.482     +0.245     -0.541
      -0.503     -0.058     +0.231
vibration  4
      -0.018     -0.145     -0.251
      +0.073     +0.100     +0.234
      +0.255     +0.128     -0.227
      -0.075     -0.068     -0.020
      +0.019     -0.040     -0.146
      -0.112     -0.019     -0.068
      +0.052     +0.209     +0.094
      -0.029     -0.041     +0.232
      -0.259     -0.133     +0.383
      -0.492     -0.147     +0.233
vibration  5
      +0.383     -0.163     -0.125
      +0.103     +0.341     -0.183
      -0.427     -0.089     +0.207
      +0.059     -0.028     -0.059
      -0.011     -0.095     +0.241
      +0.343     -0.228     -0.077
      +0.106     +0.139     -0.049
      +0.017     +0.069     +0.014
      -0.198     +0.063     -0.075
      -0.146     -0.146     +0.192
vibration  6
      -0.263     +0.181     -0.162
      -0.024     -0.110     +0.022
      +0.144     +0.009     -0.027
      -0.203     +0.184     -0.222
      +0.021     +0.346     +0.418
      +0.074     -0.419     -0.158
      +0.034     +0.025     +0.014
      -0.006     -0.053     +0.050
      +0.107     -0.048     +0.057
      +0.244     -0.210     +0.290
vibration  7
      -0.007     -0.043     +0.020
      +0.118     +0.144     +0.238
      +0.110     -0.027     +0.001
      +0.090     +0.076     -0.164
      +0.030     -0.010     -0.092
      -0.307     -0.275     -0.062
      -0.125     -0.446     -0.005
      +0.087     +0.260     -0.399
      -0.365     +0.189     -0.193
      -0.058     -0.079     +0.071
vibration  8
      +0.484     -0.018     -0.088
      -0.158     -0.340     +0.172
      -0.303     +0.205     -0.072
      -0.015     +0.088     -0.089
      +0.455     +0.315     -0.159
      -0.089     +0.009     -0.031
      -0.173     -0.062     +0.063
      -0.144     -0.093     +0.070
      -0.019     +0.050     +0.006
      +0.052     +0.066     +0.096
vibration  9
      +0.091     +0.090     +0.005
      -0.081     +0.053     +0.026
      -0.160     -0.028     -0.082
      +0.357     +0.182     -0.117
      -0.168     -0.268     -0.129
      -0.178     -0.321     -0.091
      -0.208     +0.036     +0.016
      +0.256     -0.024     -0.023
      +0.441     -0.237     +0.179
      -0.055     +0.246     +0.220
vibration  10
      +0.044     +0.059     -0.240
      -0.265     -0.171     +0.081
      +0.254     -0.068     +0.057
      +0.164     +0.122     +0.103
      -0.188     -0.204     +0.022
      +0.268     -0.017     -0.084
      +0.103     -0.088     +0.019
      -0.350     -0.012     +0.044
      -0.250     +0.113     -0.112
      +0.074     +0.494     +0.263
vibration  11
      -0.164     -0.269     +0.182
      +0.359     -0.121     -0.306
      -0.117     +0.166     +0.033
      -0.132     +0.134     +0.080
      +0.057     -0.010     -0.101
      -0.347     -0.192     +0.025
      +0.237     +0.177     -0.067
      +0.055     -0.132     +0.128
      -0.184     +0.141     -0.050
      +0.127     +0.358     +0.214
vibration  12
      -0.083     +0.150     -0.093
      +0.251     -0.379     +0.271
      -0.297     +0.329     -0.174
      +0.117     -0.074     +0.049
      -0.220     -0.147     +0.101
      +0.229     +0.027     -0.028
      +0.307     -0.243     +0.053
      +0.317     -0.126     +0.006
      -0.048     +0.103     +0.001
      -0.057     -0.074     -0.072
vibration  13
      +0.059     +0.326     +0.228
      -0.082     -0.267     -0.267
      +0.155     +0.044     +0.152
      +0.381     +0.050     -0.249
      -0.084     -0.077     -0.068
      -0.093     -0.129     +0.012
      -0.094     +0.211     -0.029
      -0.054     -0.210     +0.184
      -0.263     +0.168     -0.100
      -0.158     -0.323     -0.124
vibration  14
      +0.011     -0.041     -0.201
      -0.027     -0.084     -0.027
      +0.121     +0.050     +0.166
      -0.250     -0.048     +0.192
      -0.054     -0.056     +0.017
      +0.128     +0.016     -0.056
      -0.611     +0.141     +0.038
      +0.533     -0.152     +0.017
      -0.191     +0.143     -0.068
      +0.068     +0.091     +0.006
vibration  15
      +0.096     -0.084     +0.111
      -0.056     -0.004     +0.027
      +0.009     +0.010     -0.003
      -0.410     +0.428     -0.577
      -0.135     -0.295     -0.155
      +0.129     +0.298     +0.110
      +0.057     -0.040     +0.002
      +0.081     -0.024     +0.013
      -0.006     +0.008     -0.005
      +0.077     -0.078     +0.107
vibration  16
      +0.283     +0.317     +0.032
      +0.046     -0.053     +0.026
      -0.043     -0.005     -0.034
      -0.508     +0.010     +0.342
      -0.192     -0.308     -0.143
      -0.149     -0.351     -0.106
      +0.008     -0.016     +0.010
      -0.262     +0.032     +0.026
      +0.040     -0.026     +0.014
      +0.058     -0.158     -0.153
vibration  17
      -0.123     -0.004     -0.062
      +0.577     -0.088     +0.029
      -0.147     +0.023     -0.031
      +0.079     +0.036     -0.117
      -0.147     -0.061     +0.157
      +0.033     +0.164     +0.025
      -0.525     -0.002     +0.035
      -0.475     +0.083     +0.050
      +0.049     -0.018     +0.029
      -0.009     +0.020     +0.032
vibration  18
      +0.286     -0.020     -0.171
      -0.119     -0.001     -0.032
      +0.024     +0.003     +0.009
      -0.001     -0.030     -0.011
      -0.193     -0.092     +0.603
      -0.587     +0.301     +0.020
      +0.061     -0.083     -0.025
      +0.057     -0.071     +0.087
      -0.015     +0.010     -0.009
      +0.009     +0.015     +0.004
vibration  19
      -0.037     +0.002     +0.023
      +0.010     +0.278     -0.136
      +0.018     -0.007     -0.002
      -0.004     -0.010     +0.020
      +0.042     +0.034     -0.082
      +0.056     -0.057     -0.007
      -0.102     -0.644     -0.147
      +0.014     -0.247     +0.615
      +0.011     -0.008     +0.003
      -0.001     -0.001     -0.003
vibration  20
      +0.000     +0.001     +0.000
      -0.022     +0.016     -0.003
      -0.045     -0.301     -0.152
      +0.001     +0.001     -0.000
      +0.001     -0.000     +0.000
      -0.001     -0.000     -0.001
      -0.000     +0.004     -0.010
      -0.006     -0.005     -0.005
      +0.183     +0.806     +0.448
      -0.000     -0.000     -0.000
vibration  21
      -0.002     +0.009     -0.004
      -0.028     -0.192     +0.146
      +0.002     +0.001     +0.001
      +0.003     +0.004     +0.000
      +0.020     -0.020     +0.008
      +0.004     +0.004     -0.006
      -0.027     +0.116     -0.756
      +0.104     +0.523     +0.263
      -0.004     +0.002     -0.004
      -0.000     -0.001     -0.001
vibration  22
      +0.162     -0.072     -0.149
      -0.007     +0.001     +0.023
      -0.001     +0.000     -0.000
      -0.003     -0.002     +0.000
      -0.519     +0.422     -0.168
      -0.004     -0.167     +0.662
      -0.004     +0.008     -0.052
      -0.006     -0.028     -0.013
      +0.000     +0.000     -0.000
      +0.002     +0.009     +0.005
vibration  23
      -0.013     +0.009     +0.002
      +0.044     +0.169     +0.262
      -0.001     +0.002     +0.001
      -0.003     -0.004     -0.001
      +0.044     -0.037     +0.013
      +0.003     +0.006     -0.022
      -0.016     +0.089     -0.568
      -0.136     -0.662     -0.329
      +0.003     -0.013     -0.005
      +0.000     -0.000     +0.000
vibration  24
      +0.144     -0.166     +0.236
      +0.000     +0.001     +0.009
      -0.001     +0.000     -0.000
      -0.000     +0.000     -0.001
      -0.498     +0.411     -0.155
      +0.006     +0.157     -0.655
      +0.003     +0.006     -0.028
      -0.002     -0.008     -0.005
      -0.000     -0.000     +0.000
      -0.000     -0.000     -0.000
