[Molden Format]
[FR-COORD] # Coordinates in bohr
  C    +2.215757    -0.023048    -0.368058 
  C    -0.399741    -0.965188    +0.459638 
  O    -2.255617    +0.870353    -0.280480 
  H    +2.687087    +2.065276    +0.809225 
  H    +2.293744    +0.440707    -2.365055 
  H    +3.721351    -1.313755    +0.158860 
  H    -0.777898    -2.805774    -0.425221 
  H    -0.410278    -1.262097    +2.512329 
  H    -3.873425    +0.142444    +0.319239 
  H    +3.032240    +3.558033    +1.662513 
[FREQ] # Frequencies in cm^-1
 -2100.8327
  123.5651
  319.2642
  354.5548
  440.2917
  612.9741
  778.9337
  868.1301
 1029.3387
 1039.2366
 1102.1179
 1124.7969
 1172.2683
 1182.5592
 1302.8436
 1384.2025
 1473.4799
 1696.5801
 1749.9469
 2573.7028
 2637.5410
 2703.7955
 2802.8927
 4228.5511
[FR-NORM-COORD] # Displacements in bohr
vibration  1
      -0.062     -0.250     -0.137
      -0.004     +0.011     +0.009
      -0.001     +0.001     -0.002
      +0.170     +0.738     +0.418
      +0.011     +0.059     -0.004
      +0.034     +0.026     +0.035
      +0.000     -0.002     +0.002
      +0.003     +0.001     +0.003
      +0.001     +0.000     +0.001
      -0.077     -0.341     -0.194
vibration  2
      +0.032     -0.079     +0.060
      -0.026     -0.131     -0.190
      +0.104     +0.192     +0.292
      -0.239     +0.172     -0.230
      +0.180     -0.304     -0.032
      +0.039     +0.130     +0.349
      -0.053     +0.042     -0.259
      -0.023     -0.251     -0.107
      +0.009     +0.021     -0.005
      -0.309     +0.236     -0.312
vibration  3
      +0.101     +0.063     +0.112
      -0.019     +0.128     -0.092
      -0.358     -0.069     +0.156
      +0.331     +0.048     -0.087
      +0.160     -0.085     +0.024
      -0.064     -0.062     +0.142
      +0.081     +0.086     -0.143
      -0.036     -0.071     -0.054
      -0.090     -0.305     -0.309
      +0.567     +0.039     -0.216
vibration  4
      -0.102     -0.035     -0.074
      +0.004     -0.057     +0.166
      +0.259     +0.147     +0.121
      -0.104     -0.014     -0.009
      -0.198     +0.043     -0.023
      +0.031     +0.022     -0.156
      -0.046     -0.020     +0.092
      +0.003     +0.008     +0.077
      -0.073     -0.325     -0.782
      -0.173     -0.001     +0.016
vibration  5
      -0.231     +0.132     +0.219
      -0.100     -0.266     +0.111
      +0.335     -0.010     -0.142
      +0.074     +0.108     -0.055
      -0.336     +0.174     +0.108
      +0.031     +0.102     -0.163
      +0.018     -0.047     -0.118
      -0.196     -0.249     +0.024
      +0.035     +0.193     +0.067
      +0.349     +0.187     -0.355
vibration  6
      +0.244     -0.182     +0.170
      +0.034     +0.124     -0.018
      -0.172     +0.002     +0.002
      +0.096     -0.081     +0.084
      +0.024     +0.338     +0.165
      -0.024     -0.386     -0.317
      +0.024     +0.061     -0.029
      -0.042     +0.026     -0.011
      -0.006     -0.059     +0.030
      -0.375     +0.310     -0.410
vibration  7
      +0.090     +0.006     +0.059
      +0.111     +0.223     +0.206
      -0.072     -0.021     -0.087
      +0.181     +0.098     -0.110
      -0.396     -0.416     -0.092
      -0.002     -0.116     -0.140
      +0.310     +0.224     -0.288
      -0.245     -0.236     +0.035
      +0.015     -0.021     +0.049
      -0.207     -0.057     +0.223
vibration  8
      -0.362     +0.177     -0.017
      +0.072     +0.076     -0.053
      +0.254     -0.102     +0.028
      +0.015     +0.042     +0.059
      +0.068     -0.033     -0.021
      -0.628     -0.402     +0.148
      +0.273     -0.010     -0.032
      +0.271     +0.012     -0.027
      +0.035     +0.026     -0.019
      -0.048     +0.059     -0.027
vibration  9
      -0.069     -0.124     +0.011
      +0.113     +0.222     +0.258
      -0.051     -0.089     -0.230
      -0.164     -0.101     +0.064
      -0.068     +0.077     +0.042
      +0.035     +0.068     +0.099
      -0.365     +0.350     -0.212
      +0.541     -0.325     +0.057
      +0.015     -0.037     +0.000
      +0.066     -0.044     -0.087
vibration  10
      -0.122     -0.285     +0.150
      +0.208     +0.125     -0.240
      -0.081     +0.132     +0.044
      -0.417     -0.146     +0.165
      -0.362     -0.032     +0.089
      +0.120     +0.090     +0.066
      +0.412     -0.025     -0.056
      +0.095     +0.270     -0.090
      +0.052     -0.098     +0.053
      +0.188     -0.094     -0.165
vibration  11
      -0.076     -0.146     -0.296
      -0.036     +0.125     +0.344
      +0.012     -0.004     -0.010
      -0.225     -0.147     -0.107
      +0.381     +0.330     -0.024
      -0.008     +0.068     +0.094
      +0.413     +0.087     -0.093
      -0.331     -0.196     +0.124
      -0.028     +0.061     -0.013
      +0.043     -0.175     -0.105
vibration  12
      +0.001     +0.016     -0.037
      +0.097     +0.233     -0.087
      +0.281     -0.334     +0.136
      -0.224     +0.047     +0.011
      -0.027     +0.030     -0.012
      -0.099     -0.088     +0.020
      -0.410     +0.253     -0.147
      -0.464     +0.270     -0.020
      +0.173     -0.230     +0.103
      +0.100     -0.024     -0.010
vibration  13
      +0.185     +0.000     +0.165
      +0.009     -0.060     +0.029
      -0.089     +0.079     -0.042
      -0.524     +0.425     -0.321
      +0.126     -0.006     +0.070
      -0.046     -0.326     -0.315
      -0.012     -0.053     +0.073
      +0.085     -0.096     +0.007
      -0.035     +0.036     -0.018
      +0.244     -0.064     +0.201
vibration  14
      +0.089     +0.217     -0.133
      -0.015     -0.033     +0.114
      -0.037     +0.028     -0.024
      -0.267     -0.127     +0.619
      +0.194     -0.422     -0.190
      +0.008     -0.039     -0.263
      -0.003     -0.011     +0.040
      -0.081     -0.109     +0.044
      -0.035     +0.049     -0.021
      +0.141     +0.204     -0.171
vibration  15
      +0.266     +0.061     -0.187
      +0.234     +0.023     -0.048
      -0.110     +0.131     -0.052
      -0.093     -0.015     +0.077
      -0.355     +0.164     -0.078
      -0.189     -0.142     +0.392
      -0.119     -0.154     +0.402
      -0.206     -0.401     -0.079
      +0.025     -0.061     +0.030
      +0.048     +0.025     -0.024
vibration  16
      -0.397     -0.065     +0.188
      +0.181     +0.297     -0.175
      +0.052     +0.032     -0.025
      +0.094     -0.037     -0.072
      +0.254     -0.132     +0.097
      +0.078     +0.152     -0.284
      -0.027     -0.062     +0.403
      -0.088     -0.364     -0.163
      +0.159     -0.226     +0.100
      -0.062     -0.075     -0.018
vibration  17
      +0.217     -0.042     -0.006
      -0.560     +0.430     -0.175
      +0.241     -0.335     +0.149
      -0.063     +0.002     +0.028
      -0.129     +0.001     -0.013
      +0.131     +0.005     +0.025
      +0.143     -0.009     +0.191
      +0.129     -0.166     -0.140
      -0.102     +0.216     -0.103
      +0.027     +0.017     +0.005
vibration  18
      -0.023     +0.146     +0.133
      +0.383     +0.037     -0.091
      -0.090     -0.175     +0.106
      -0.021     -0.108     -0.063
      +0.004     -0.065     +0.059
      -0.043     +0.015     -0.060
      -0.130     +0.051     +0.040
      -0.106     +0.026     -0.057
      -0.378     +0.547     -0.244
      -0.087     -0.368     -0.208
vibration  19
      +0.213     +0.367     +0.126
      -0.265     -0.079     +0.038
      +0.050     +0.093     -0.055
      -0.051     -0.158     -0.077
      -0.035     -0.071     +0.007
      -0.063     -0.038     -0.032
      +0.009     -0.067     -0.021
      +0.081     -0.000     +0.039
      +0.195     -0.281     +0.125
      -0.136     -0.613     -0.353
vibration  20
      -0.010     +0.029     +0.015
      -0.065     -0.322     +0.146
      -0.004     +0.017     -0.009
      +0.006     +0.005     -0.000
      +0.011     +0.022     -0.080
      +0.049     -0.052     +0.023
      +0.126     +0.617     +0.292
      +0.004     +0.093     -0.604
      +0.001     -0.015     +0.008
      -0.003     -0.011     -0.006
vibration  21
      +0.249     -0.108     -0.212
      -0.037     -0.043     +0.030
      -0.002     +0.003     -0.001
      -0.008     +0.000     +0.005
      -0.031     -0.148     +0.633
      -0.494     +0.413     -0.167
      +0.017     +0.065     +0.029
      -0.004     +0.009     -0.068
      +0.001     -0.004     +0.002
      +0.011     +0.038     +0.020
vibration  22
      -0.002     -0.001     -0.008
      +0.043     +0.181     +0.398
      -0.001     -0.000     -0.005
      -0.007     -0.005     -0.000
      +0.011     +0.005     -0.007
      +0.002     -0.003     +0.000
      -0.111     -0.519     -0.261
      +0.004     +0.086     -0.670
      -0.000     -0.004     -0.004
      +0.001     +0.003     +0.002
vibration  23
      +0.185     -0.229     +0.334
      -0.003     +0.006     -0.008
      -0.003     -0.002     +0.002
      -0.004     +0.005     -0.008
      +0.017     +0.147     -0.622
      -0.455     +0.396     -0.168
      -0.000     -0.001     -0.001
      +0.010     +0.003     -0.001
      -0.004     +0.004     -0.002
      +0.001     -0.002     +0.002
vibration  24
      -0.001     -0.001     +0.001
      -0.006     +0.014     -0.007
      +0.219     +0.081     -0.072
      -0.000     -0.000     -0.000
      -0.001     -0.000     +0.000
      +0.001     -0.000     +0.000
      -0.002     -0.002     -0.001
      -0.002     +0.000     +0.003
      -0.843     -0.367     +0.306
      +0.000     -0.000     +0.000
