[Molden Format]
[FR-COORD] # Coordinates in bohr
  C    +2.396166    -0.351318    -0.000424 
  C    -0.184210    +1.005213    -0.001193 
  O    -2.130801    -0.892634    +0.002074 
  H    +3.916212    +1.026824    -0.002263 
  H    +2.579849    -1.533310    +1.666396 
  H    +2.579005    -1.536840    -1.664826 
  H    -0.325031    +2.225341    +1.668028 
  H    -0.326341    +2.220936    -1.673503 
  H    -3.844538    +0.167020    +0.000247 
  H    -5.509956    +1.411694    -0.001593 
[FREQ] # Frequencies in cm^-1
 -2522.1560
  146.8637
  167.8560
  329.7118
  453.5292
  695.9017
  871.7455
  892.7806
 1034.3746
 1035.8130
 1134.3082
 1156.9350
 1308.4735
 1315.1197
 1322.9164
 1405.9272
 1475.4155
 1659.9567
 1970.5622
 2571.7412
 2592.2472
 2720.4582
 2793.3285
 2794.7254
[FR-NORM-COORD] # Displacements in bohr
vibration  1
      -0.000     -0.008     +0.000
      +0.020     +0.030     -0.000
      +0.024     -0.030     +0.000
      -0.005     +0.002     +0.000
      +0.002     -0.001     +0.002
      +0.002     -0.001     -0.002
      -0.005     -0.007     +0.002
      -0.005     -0.007     -0.002
      -0.653     +0.427     -0.001
      +0.505     -0.364     +0.001
vibration  2
      -0.000     -0.000     -0.151
      +0.000     +0.000     +0.125
      +0.000     +0.001     +0.351
      +0.000     -0.000     +0.051
      +0.002     -0.139     -0.161
      -0.003     +0.139     -0.161
      +0.059     -0.002     +0.060
      -0.059     +0.002     +0.060
      +0.000     -0.001     -0.291
      -0.000     -0.001     -0.804
vibration  3
      -0.000     -0.000     -0.023
      +0.000     +0.000     +0.250
      -0.000     -0.000     -0.207
      -0.000     -0.001     -0.533
      +0.272     +0.332     +0.195
      -0.272     -0.331     +0.196
      -0.008     -0.130     +0.198
      +0.008     +0.131     +0.197
      +0.000     -0.000     -0.112
      +0.000     -0.000     -0.202
vibration  4
      -0.192     -0.124     +0.000
      +0.039     +0.303     -0.000
      +0.343     +0.086     -0.000
      +0.084     -0.234     +0.000
      -0.233     -0.081     -0.004
      -0.232     -0.081     +0.005
      +0.022     +0.119     +0.006
      +0.022     +0.119     -0.006
      -0.005     -0.131     +0.000
      -0.360     -0.608     +0.001
vibration  5
      +0.271     -0.035     -0.000
      +0.089     -0.207     +0.000
      -0.431     +0.269     -0.000
      -0.033     +0.150     -0.000
      +0.264     +0.016     +0.005
      +0.264     +0.016     -0.006
      +0.118     -0.070     -0.004
      +0.118     -0.070     +0.004
      -0.087     +0.120     -0.000
      -0.471     -0.414     +0.001
vibration  6
      -0.000     -0.000     -0.181
      -0.000     -0.000     -0.239
      +0.000     +0.000     +0.093
      -0.000     +0.000     +0.149
      -0.380     +0.243     +0.139
      +0.380     -0.243     +0.139
      +0.287     -0.323     +0.161
      -0.287     +0.323     +0.160
      -0.000     +0.000     +0.073
      +0.000     -0.000     -0.054
vibration  7
      -0.416     -0.165     +0.000
      +0.060     -0.102     +0.000
      +0.257     +0.106     -0.000
      -0.610     +0.392     -0.000
      +0.059     +0.035     +0.043
      +0.059     +0.035     -0.043
      +0.284     -0.033     +0.010
      +0.284     -0.033     -0.010
      +0.044     -0.029     +0.000
      +0.052     -0.028     -0.000
vibration  8
      +0.000     +0.000     +0.038
      -0.000     -0.000     -0.041
      -0.000     -0.000     -0.109
      +0.000     -0.000     -0.013
      +0.040     -0.028     -0.008
      -0.040     +0.028     -0.008
      -0.079     -0.026     -0.011
      +0.078     +0.026     -0.011
      +0.000     +0.002     +0.903
      -0.000     -0.001     -0.389
vibration  9
      +0.000     -0.000     +0.016
      -0.000     -0.000     -0.333
      +0.000     +0.000     +0.276
      -0.000     -0.000     -0.056
      +0.018     -0.025     -0.015
      -0.018     +0.025     -0.015
      -0.523     -0.350     +0.057
      +0.523     +0.351     +0.056
      -0.000     -0.000     -0.079
      +0.000     +0.000     +0.040
vibration  10
      +0.035     -0.374     +0.000
      -0.266     +0.250     +0.000
      +0.158     +0.127     -0.000
      -0.135     +0.007     +0.000
      +0.420     -0.169     -0.034
      +0.420     -0.169     +0.034
      -0.301     +0.168     -0.040
      -0.302     +0.167     +0.039
      -0.028     -0.103     +0.000
      +0.048     +0.019     -0.000
vibration  11
      +0.008     +0.000     -0.000
      +0.098     -0.297     +0.000
      +0.283     +0.385     -0.001
      -0.076     +0.082     -0.000
      -0.128     +0.015     +0.022
      -0.128     +0.015     -0.022
      -0.413     -0.301     +0.078
      -0.413     -0.301     -0.076
      +0.168     +0.244     -0.001
      -0.028     -0.062     +0.000
vibration  12
      +0.000     +0.001     +0.385
      -0.000     -0.001     -0.421
      +0.000     +0.000     +0.034
      +0.000     -0.000     +0.005
      +0.364     -0.199     +0.002
      -0.364     +0.199     +0.001
      +0.330     -0.235     -0.001
      -0.330     +0.235     -0.001
      +0.000     -0.000     -0.028
      +0.000     +0.000     +0.007
vibration  13
      -0.307     +0.065     -0.000
      -0.249     +0.074     +0.000
      +0.102     +0.122     -0.000
      +0.237     -0.386     +0.000
      +0.266     +0.189     +0.062
      +0.266     +0.189     -0.063
      +0.146     -0.308     +0.267
      +0.146     -0.309     -0.266
      -0.025     -0.079     +0.000
      +0.035     -0.002     -0.000
vibration  14
      -0.000     -0.000     -0.307
      +0.000     -0.000     +0.003
      -0.000     -0.000     +0.006
      +0.000     +0.001     +0.712
      +0.351     +0.271     +0.013
      -0.351     -0.271     +0.013
      -0.046     +0.002     -0.008
      +0.046     -0.002     -0.007
      +0.000     +0.000     +0.002
      -0.000     +0.000     +0.000
vibration  15
      -0.012     +0.342     -0.000
      -0.157     +0.004     +0.000
      +0.054     +0.073     -0.000
      +0.025     +0.123     -0.000
      +0.007     -0.439     -0.427
      +0.007     -0.438     +0.427
      +0.106     -0.133     +0.113
      +0.106     -0.133     -0.112
      -0.010     -0.036     +0.000
      +0.025     -0.007     +0.000
vibration  16
      +0.402     -0.240     +0.000
      -0.047     +0.431     -0.001
      -0.093     -0.048     +0.000
      -0.143     +0.271     -0.000
      -0.175     -0.020     +0.119
      -0.176     -0.020     -0.119
      +0.007     -0.222     +0.327
      +0.007     -0.223     -0.326
      -0.165     -0.229     +0.000
      -0.010     +0.065     -0.000
vibration  17
      -0.311     +0.047     +0.000
      +0.591     +0.356     -0.001
      -0.188     -0.339     +0.001
      -0.105     -0.044     +0.000
      +0.141     -0.041     -0.086
      +0.141     -0.041     +0.086
      -0.148     -0.068     +0.138
      -0.148     -0.068     -0.138
      +0.096     +0.284     -0.001
      -0.144     +0.046     -0.000
vibration  18
      +0.151     -0.094     +0.000
      -0.436     +0.131     -0.000
      +0.091     -0.224     +0.000
      -0.001     +0.051     -0.000
      -0.025     -0.013     +0.050
      -0.025     -0.013     -0.050
      +0.125     +0.035     +0.068
      +0.125     +0.035     -0.068
      +0.420     +0.683     -0.001
      -0.078     -0.050     +0.000
vibration  19
      -0.002     -0.009     +0.000
      +0.069     +0.066     -0.000
      -0.330     +0.104     -0.000
      -0.010     +0.007     -0.000
      +0.004     -0.002     +0.002
      +0.004     -0.002     -0.002
      -0.013     +0.009     +0.042
      -0.013     +0.008     -0.042
      +0.548     -0.200     +0.000
      +0.577     -0.439     +0.001
vibration  20
      -0.225     +0.111     -0.000
      +0.010     +0.125     -0.000
      -0.005     -0.004     +0.000
      +0.384     +0.344     -0.000
      +0.055     -0.298     +0.413
      +0.054     -0.299     -0.412
      +0.019     -0.154     -0.204
      +0.019     -0.153     +0.204
      +0.010     -0.002     +0.000
      +0.003     -0.003     +0.000
vibration  21
      +0.113     -0.068     +0.000
      -0.058     +0.341     -0.000
      -0.016     -0.013     +0.000
      -0.167     -0.135     +0.000
      -0.014     +0.116     -0.168
      -0.014     +0.116     +0.167
      +0.040     -0.361     -0.484
      +0.040     -0.359     +0.485
      +0.030     +0.000     +0.000
      +0.009     -0.008     +0.000
vibration  22
      -0.000     -0.000     -0.012
      +0.000     +0.001     +0.443
      +0.000     +0.000     -0.005
      -0.000     -0.000     -0.002
      -0.011     +0.004     +0.001
      +0.011     -0.004     +0.001
      +0.044     -0.364     -0.517
      -0.045     +0.363     -0.518
      -0.000     -0.000     -0.004
      -0.000     +0.000     -0.001
vibration  23
      +0.203     +0.392     -0.001
      -0.004     -0.009     +0.000
      -0.004     +0.003     -0.000
      -0.535     -0.495     +0.001
      +0.026     -0.220     +0.298
      +0.026     -0.220     -0.296
      +0.005     -0.003     +0.001
      +0.005     -0.003     -0.001
      -0.003     -0.004     +0.000
      +0.001     -0.000     +0.000
vibration  24
      -0.000     -0.001     -0.441
      +0.000     +0.000     +0.009
      +0.000     -0.000     -0.000
      +0.001     +0.001     +0.011
      +0.053     -0.358     +0.520
      -0.053     +0.360     +0.520
      -0.010     +0.006     +0.001
      +0.010     -0.006     +0.001
      +0.000     +0.000     -0.000
      -0.000     +0.000     +0.000
