[Molden Format]
[FR-COORD] # Coordinates in bohr
  C    -2.345091    -0.556979    +0.144501 
  C    +0.178889    +0.715247    -0.558791 
  O    +2.371753    -0.715570    +0.026075 
  H    -3.911900    +0.662531    -0.371044 
  H    -2.554745    -2.345037    -0.844165 
  H    -2.442579    -0.916932    +2.163858 
  H    +0.251479    +1.191637    -2.568493 
  H    +0.250306    +2.819635    +0.575760 
  H    +2.193277    -1.127612    +1.843670 
  H    +0.285186    +4.455487    +1.461675 
[FREQ] # Frequencies in cm^-1
 -1985.3769
  152.5092
  265.4583
  295.1932
  370.6137
  408.4309
  748.8274
  868.7141
  963.8607
 1003.5330
 1086.1785
 1118.0830
 1173.0333
 1297.7995
 1313.8200
 1320.0028
 1322.5552
 1411.7398
 1532.7114
 2566.3565
 2689.4851
 2780.1187
 2788.5265
 3081.9281
[FR-NORM-COORD] # Displacements in bohr
vibration  1
      +0.001     +0.012     +0.012
      +0.006     -0.218     -0.102
      -0.014     +0.027     +0.005
      +0.002     +0.004     -0.001
      -0.002     +0.001     +0.000
      -0.001     -0.000     +0.003
      +0.013     +0.055     +0.003
      +0.019     +0.760     +0.407
      -0.000     -0.007     -0.002
      -0.008     -0.387     -0.208
vibration  2
      +0.003     +0.018     +0.016
      -0.009     +0.065     +0.058
      -0.014     -0.027     -0.168
      -0.023     -0.231     -0.482
      +0.267     -0.239     +0.394
      -0.233     +0.471     +0.078
      -0.022     +0.101     +0.041
      +0.019     -0.022     +0.116
      -0.006     -0.121     -0.085
      +0.049     -0.086     +0.230
vibration  3
      +0.106     +0.043     +0.080
      +0.068     +0.057     +0.027
      +0.071     +0.064     +0.025
      +0.032     +0.014     +0.063
      +0.027     +0.014     +0.043
      +0.083     +0.027     +0.037
      +0.032     +0.023     +0.011
      -0.064     +0.055     -0.049
      -0.398     -0.731     -0.205
      -0.339     +0.174     -0.233
vibration  4
      +0.002     +0.205     +0.041
      +0.135     -0.123     -0.063
      +0.131     -0.188     -0.096
      +0.093     +0.197     +0.004
      -0.155     +0.072     +0.075
      -0.003     +0.165     +0.031
      +0.057     -0.051     -0.026
      -0.126     -0.076     +0.018
      +0.199     +0.173     +0.036
      -0.768     -0.150     +0.187
vibration  5
      +0.012     +0.033     +0.023
      -0.041     -0.121     -0.407
      +0.063     +0.305     +0.197
      -0.002     +0.049     +0.116
      -0.152     -0.022     +0.108
      +0.181     +0.108     +0.035
      +0.016     -0.189     -0.199
      -0.017     -0.097     -0.122
      -0.296     -0.100     -0.009
      +0.161     -0.395     +0.453
vibration  6
      -0.326     -0.008     -0.010
      -0.056     -0.296     +0.194
      +0.465     +0.328     -0.059
      +0.059     +0.195     -0.134
      -0.306     +0.034     -0.037
      -0.362     +0.018     -0.012
      -0.080     -0.115     +0.080
      -0.026     -0.107     +0.020
      +0.193     -0.186     -0.086
      +0.142     -0.024     -0.114
vibration  7
      -0.070     -0.124     -0.166
      -0.006     -0.078     -0.095
      +0.046     +0.008     +0.046
      -0.043     +0.015     +0.126
      -0.359     -0.176     +0.220
      +0.296     +0.215     -0.004
      +0.255     +0.538     +0.108
      -0.130     -0.243     +0.254
      -0.037     +0.073     +0.028
      +0.075     +0.046     -0.224
vibration  8
      +0.400     -0.134     +0.071
      -0.070     -0.117     +0.024
      -0.209     +0.068     -0.016
      +0.563     +0.335     -0.195
      -0.039     +0.020     -0.057
      -0.087     +0.025     +0.028
      -0.353     +0.111     +0.044
      -0.116     -0.146     +0.097
      -0.227     +0.134     +0.000
      +0.045     -0.057     -0.103
vibration  9
      -0.124     +0.152     +0.157
      +0.066     -0.059     -0.198
      +0.266     -0.051     +0.072
      -0.203     -0.142     +0.015
      +0.210     +0.110     -0.068
      -0.201     -0.140     +0.027
      -0.318     +0.350     -0.006
      +0.348     -0.250     +0.071
      -0.322     +0.173     +0.037
      -0.121     -0.185     -0.180
vibration  10
      -0.051     -0.329     +0.101
      +0.223     +0.231     -0.141
      +0.093     -0.110     -0.033
      +0.109     +0.009     -0.011
      -0.429     -0.148     +0.118
      -0.335     -0.126     +0.041
      +0.040     +0.102     -0.077
      +0.215     +0.306     -0.110
      -0.231     +0.126     +0.003
      -0.048     +0.283     +0.227
vibration  11
      +0.021     -0.037     +0.253
      +0.081     -0.051     -0.026
      -0.318     +0.237     -0.131
      +0.086     +0.028     -0.011
      +0.091     +0.046     -0.015
      -0.305     -0.167     +0.078
      +0.678     +0.038     +0.023
      +0.147     -0.188     -0.051
      -0.007     +0.026     -0.067
      -0.045     -0.236     -0.142
vibration  12
      +0.005     +0.075     +0.188
      +0.026     +0.068     -0.154
      +0.201     -0.207     +0.024
      -0.018     -0.016     +0.021
      +0.128     +0.090     -0.038
      -0.244     -0.107     +0.052
      +0.090     +0.253     -0.017
      -0.758     +0.090     -0.218
      -0.025     +0.001     +0.026
      +0.187     -0.075     +0.021
vibration  13
      +0.014     -0.063     -0.056
      -0.095     +0.005     +0.123
      -0.078     +0.007     +0.115
      +0.068     +0.046     -0.029
      -0.055     -0.049     +0.022
      +0.088     +0.024     -0.014
      -0.119     +0.418     +0.157
      +0.222     +0.169     -0.655
      +0.269     -0.163     +0.033
      -0.057     -0.321     -0.000
vibration  14
      +0.344     +0.070     -0.074
      +0.221     +0.309     +0.043
      -0.148     +0.026     +0.060
      -0.167     -0.340     +0.078
      -0.429     +0.054     +0.053
      -0.250     +0.006     -0.062
      -0.211     -0.136     -0.059
      -0.097     -0.159     +0.088
      +0.179     -0.109     +0.012
      +0.015     -0.315     -0.204
vibration  15
      -0.005     +0.092     +0.313
      -0.095     -0.036     -0.247
      -0.043     +0.002     +0.118
      +0.040     -0.214     -0.587
      -0.245     +0.217     -0.120
      +0.279     -0.245     +0.107
      +0.021     +0.111     -0.095
      +0.036     -0.024     +0.109
      +0.241     -0.146     +0.034
      -0.007     +0.158     +0.057
vibration  16
      -0.073     +0.281     -0.115
      +0.118     +0.016     +0.178
      +0.003     +0.017     -0.086
      -0.001     +0.106     -0.209
      -0.030     -0.195     +0.529
      +0.176     -0.584     -0.170
      -0.031     -0.084     +0.069
      -0.085     -0.002     -0.060
      -0.161     +0.096     -0.028
      +0.015     -0.111     -0.044
vibration  17
      -0.015     +0.016     -0.066
      -0.083     +0.075     -0.383
      -0.090     +0.002     +0.213
      +0.109     +0.257     +0.214
      +0.232     -0.183     +0.263
      -0.243     -0.194     -0.075
      -0.108     +0.100     -0.192
      +0.079     -0.077     +0.206
      +0.438     -0.268     +0.061
      -0.013     +0.138     +0.019
vibration  18
      +0.361     +0.265     -0.100
      -0.006     -0.591     -0.009
      -0.149     +0.131     -0.030
      -0.155     -0.229     +0.144
      -0.075     +0.085     +0.098
      -0.209     -0.048     -0.106
      -0.013     +0.158     +0.114
      +0.006     +0.091     -0.088
      -0.008     +0.023     -0.026
      +0.007     +0.348     +0.214
vibration  19
      -0.321     -0.106     +0.056
      +0.749     -0.170     -0.024
      -0.329     +0.182     +0.000
      -0.068     +0.062     -0.026
      +0.103     -0.027     -0.095
      +0.111     +0.057     +0.071
      -0.242     +0.070     -0.002
      -0.142     -0.017     -0.023
      +0.085     -0.039     -0.037
      +0.034     +0.057     +0.034
vibration  20
      +0.239     +0.130     -0.069
      -0.028     -0.008     -0.011
      -0.001     -0.001     -0.000
      -0.411     +0.312     -0.132
      -0.063     -0.492     -0.270
      -0.035     -0.101     +0.552
      -0.003     -0.013     +0.043
      -0.001     -0.005     -0.000
      +0.002     -0.000     +0.002
      -0.000     +0.003     +0.002
vibration  21
      -0.024     -0.014     +0.017
      +0.017     +0.110     -0.400
      +0.001     -0.006     +0.015
      +0.028     -0.012     +0.006
      +0.004     +0.015     +0.008
      -0.011     -0.003     -0.019
      -0.031     -0.210     +0.882
      +0.001     -0.007     +0.012
      +0.023     -0.013     -0.002
      +0.000     +0.014     +0.005
vibration  22
      +0.012     +0.190     +0.396
      -0.000     -0.003     -0.007
      -0.000     +0.000     +0.000
      +0.006     -0.009     -0.008
      -0.063     -0.552     -0.314
      +0.027     +0.103     -0.623
      +0.009     +0.005     -0.005
      -0.006     -0.007     -0.001
      -0.001     +0.000     -0.000
      +0.000     +0.002     +0.001
vibration  23
      -0.223     +0.344     -0.160
      +0.004     -0.007     +0.007
      +0.005     +0.001     -0.001
      +0.567     -0.448     +0.190
      -0.028     -0.305     -0.161
      -0.009     -0.070     +0.351
      -0.005     -0.002     -0.005
      -0.003     -0.003     -0.000
      -0.000     +0.001     -0.000
      +0.000     +0.001     +0.000
vibration  24
      +0.001     +0.001     -0.001
      -0.024     +0.013     -0.000
      -0.009     -0.088     +0.328
      -0.001     +0.000     -0.001
      -0.000     -0.001     -0.000
      +0.001     +0.000     +0.001
      -0.002     +0.003     -0.008
      -0.000     +0.003     +0.001
      +0.085     +0.210     -0.912
      -0.000     -0.002     -0.001
