[Molden Format]
[FR-COORD] # Coordinates in bohr
  C    +2.231405    -0.091886    -0.404923 
  C    -0.384093    -1.034026    +0.422773 
  O    -2.239969    +0.801515    -0.317345 
  H    +2.702735    +1.996438    +0.772360 
  H    +2.309392    +0.371869    -2.401920 
  H    +3.736999    -1.382593    +0.121995 
  H    -0.762250    -2.874612    -0.462086 
  H    -0.394630    -1.330935    +2.475464 
  H    -3.857777    +0.073606    +0.282374 
  H    +3.047888    +3.489195    +1.625648 
[FREQ] # Frequencies in cm^-1
 -1998.3408
  111.8737
  244.8291
  284.6752
  401.7419
  541.8185
  758.5834
  865.3667
  979.0086
 1028.5979
 1043.2398
 1081.7098
 1135.9493
 1150.1214
 1276.1778
 1308.9645
 1379.8038
 1444.5046
 1544.9591
 2573.3479
 2636.4794
 2703.7651
 2802.8630
 3081.0186
[FR-NORM-COORD] # Displacements in bohr
vibration  1
      +0.059     +0.234     +0.129
      +0.004     -0.012     -0.010
      +0.001     -0.001     +0.002
      -0.174     -0.758     -0.430
      -0.012     -0.061     +0.003
      -0.035     -0.028     -0.037
      -0.001     +0.002     -0.002
      -0.003     -0.001     -0.003
      -0.000     -0.000     -0.001
      +0.069     +0.304     +0.173
vibration  2
      -0.047     +0.111     -0.078
      +0.024     +0.146     +0.195
      -0.137     -0.216     -0.308
      +0.200     -0.116     +0.161
      -0.173     +0.254     +0.010
      -0.033     -0.081     -0.302
      +0.061     -0.043     +0.273
      +0.027     +0.270     +0.111
      -0.020     -0.048     +0.002
      +0.383     -0.252     +0.330
vibration  3
      -0.001     +0.043     +0.066
      -0.028     +0.053     +0.022
      -0.129     +0.058     +0.254
      +0.153     +0.036     -0.053
      +0.014     -0.028     +0.017
      -0.032     -0.015     +0.040
      +0.016     +0.057     -0.073
      -0.021     -0.073     -0.002
      -0.122     -0.429     -0.659
      +0.426     +0.052     -0.202
vibration  4
      -0.060     -0.107     -0.197
      +0.054     -0.011     +0.196
      +0.303     +0.166     +0.090
      -0.165     -0.070     +0.005
      -0.181     +0.026     -0.071
      +0.043     -0.014     -0.205
      -0.078     -0.038     +0.201
      +0.085     +0.123     +0.102
      -0.004     -0.114     -0.481
      -0.537     -0.093     +0.199
vibration  5
      +0.245     -0.098     -0.190
      +0.089     +0.304     -0.138
      -0.400     +0.005     +0.125
      +0.038     -0.045     -0.055
      +0.367     -0.264     -0.120
      -0.043     -0.081     +0.242
      +0.007     +0.076     +0.063
      +0.164     +0.221     -0.042
      -0.038     -0.222     +0.058
      -0.182     -0.201     +0.302
vibration  6
      -0.247     +0.177     -0.155
      -0.033     -0.152     +0.037
      +0.198     -0.007     -0.002
      -0.195     +0.163     -0.185
      -0.062     -0.346     -0.161
      +0.053     +0.411     +0.306
      -0.020     -0.065     +0.021
      +0.024     -0.050     +0.017
      +0.009     +0.099     -0.050
      +0.318     -0.254     +0.346
vibration  7
      -0.079     -0.016     -0.081
      -0.087     -0.200     -0.204
      +0.054     +0.018     +0.092
      -0.266     -0.128     +0.169
      +0.401     +0.397     +0.080
      +0.011     +0.126     +0.152
      -0.291     -0.214     +0.289
      +0.267     +0.249     -0.033
      -0.022     +0.037     -0.045
      +0.153     +0.010     -0.175
vibration  8
      +0.363     -0.186     +0.032
      -0.061     -0.062     +0.054
      -0.245     +0.112     -0.035
      -0.045     -0.043     -0.067
      -0.078     +0.051     +0.033
      +0.628     +0.394     -0.153
      -0.262     +0.020     +0.025
      -0.275     -0.010     +0.026
      -0.041     -0.047     +0.031
      +0.030     -0.075     -0.005
vibration  9
      -0.187     -0.208     +0.114
      +0.212     +0.283     -0.079
      +0.070     +0.046     -0.061
      -0.456     -0.161     +0.127
      -0.284     +0.039     +0.085
      +0.018     +0.070     +0.110
      +0.071     +0.197     -0.155
      +0.032     +0.126     -0.045
      +0.264     -0.360     +0.161
      +0.096     -0.224     -0.196
vibration  10
      -0.011     -0.034     -0.065
      +0.034     +0.147     +0.377
      -0.098     -0.094     -0.222
      -0.022     -0.101     -0.003
      +0.101     +0.120     +0.011
      +0.023     +0.069     +0.086
      -0.254     +0.294     -0.182
      +0.513     -0.445     +0.102
      -0.119     +0.151     -0.075
      -0.024     -0.096     -0.075
vibration  11
      -0.003     -0.112     -0.045
      +0.031     -0.029     +0.073
      -0.196     +0.143     +0.047
      -0.153     -0.161     -0.006
      +0.059     +0.112     +0.025
      +0.094     +0.093     +0.043
      +0.736     -0.145     +0.001
      +0.019     -0.035     +0.027
      -0.252     +0.319     -0.127
      -0.018     -0.241     -0.165
vibration  12
      -0.071     +0.053     -0.226
      -0.080     +0.125     +0.232
      +0.199     -0.159     +0.054
      +0.053     -0.059     -0.256
      +0.376     +0.341     -0.012
      -0.112     +0.029     +0.115
      +0.005     +0.128     -0.070
      -0.550     -0.071     +0.092
      +0.117     -0.109     +0.052
      -0.082     -0.248     -0.087
vibration  13
      +0.207     -0.033     +0.016
      +0.018     +0.018     +0.114
      -0.044     -0.012     -0.012
      -0.656     +0.352     -0.133
      +0.202     -0.024     -0.000
      -0.061     -0.346     -0.318
      -0.002     +0.033     +0.006
      -0.081     -0.090     +0.042
      -0.051     +0.055     -0.023
      +0.222     +0.089     +0.141
vibration  14
      +0.027     +0.148     -0.274
      -0.011     +0.044     +0.146
      +0.034     -0.063     +0.017
      -0.126     -0.268     +0.674
      +0.161     -0.339     -0.225
      +0.013     +0.074     -0.085
      +0.009     +0.065     -0.034
      -0.237     -0.057     +0.058
      -0.017     +0.032     -0.012
      +0.062     +0.201     -0.112
vibration  15
      +0.078     -0.025     +0.060
      -0.103     +0.074     -0.064
      +0.142     -0.415     +0.205
      -0.036     +0.003     -0.014
      -0.079     -0.014     +0.026
      +0.069     +0.005     -0.014
      -0.088     +0.241     -0.431
      +0.024     +0.526     +0.035
      -0.229     +0.337     -0.151
      +0.000     -0.047     -0.021
vibration  16
      +0.377     -0.003     -0.238
      +0.157     +0.029     -0.046
      -0.055     -0.069     +0.050
      -0.109     -0.009     +0.066
      -0.474     +0.240     -0.085
      -0.171     -0.160     +0.505
      -0.127     -0.036     +0.156
      -0.189     -0.128     -0.041
      -0.130     +0.155     -0.065
      +0.050     +0.069     +0.018
vibration  17
      -0.112     -0.411     -0.261
      -0.113     -0.120     +0.180
      -0.019     +0.118     -0.064
      +0.050     +0.065     +0.010
      +0.018     +0.222     -0.032
      +0.063     +0.054     +0.177
      +0.203     +0.059     -0.261
      +0.063     +0.157     +0.118
      +0.092     -0.129     +0.058
      +0.116     +0.534     +0.307
vibration  18
      +0.142     +0.274     -0.011
      +0.198     -0.538     +0.238
      -0.191     +0.298     -0.134
      -0.011     -0.010     +0.006
      -0.019     -0.011     -0.047
      -0.164     -0.116     +0.062
      -0.098     -0.013     -0.333
      +0.008     +0.290     +0.203
      +0.040     -0.121     +0.060
      -0.045     -0.212     -0.127
vibration  19
      -0.375     -0.175     +0.039
      +0.747     -0.037     -0.048
      -0.166     +0.007     +0.017
      +0.062     +0.005     -0.032
      +0.129     -0.003     +0.068
      -0.039     +0.078     -0.070
      -0.179     +0.077     +0.038
      -0.235     +0.018     -0.033
      -0.193     +0.193     -0.078
      +0.014     +0.128     +0.080
vibration  20
      +0.012     -0.028     -0.015
      +0.064     +0.321     -0.145
      -0.001     -0.018     +0.010
      -0.006     -0.007     -0.001
      -0.011     -0.023     +0.083
      -0.051     +0.054     -0.024
      -0.126     -0.617     -0.292
      -0.003     -0.093     +0.604
      +0.014     +0.015     -0.010
      +0.002     +0.006     +0.004
vibration  21
      -0.251     +0.104     +0.209
      +0.038     +0.044     -0.031
      +0.001     -0.003     +0.001
      +0.009     +0.005     -0.002
      +0.031     +0.149     -0.633
      +0.495     -0.413     +0.167
      -0.017     -0.066     -0.030
      +0.004     -0.010     +0.071
      +0.003     +0.004     -0.002
      -0.007     -0.022     -0.011
vibration  22
      +0.002     +0.001     +0.007
      -0.043     -0.181     -0.398
      +0.000     +0.000     +0.005
      +0.007     +0.006     +0.001
      -0.011     -0.005     +0.007
      -0.003     +0.003     -0.000
      +0.111     +0.519     +0.261
      -0.004     -0.086     +0.670
      +0.002     +0.003     +0.002
      -0.001     -0.002     -0.001
vibration  23
      -0.185     +0.229     -0.334
      +0.004     -0.006     +0.008
      +0.002     +0.001     -0.001
      +0.004     -0.005     +0.008
      -0.017     -0.147     +0.622
      +0.455     -0.396     +0.168
      +0.000     +0.001     +0.001
      -0.010     -0.003     +0.001
      +0.006     -0.001     -0.000
      -0.001     +0.001     -0.001
vibration  24
      +0.003     -0.001     +0.000
      +0.016     -0.026     +0.012
      -0.306     -0.110     +0.099
      +0.000     +0.000     +0.000
      +0.001     +0.000     -0.002
      -0.003     +0.002     -0.001
      +0.003     +0.009     +0.004
      +0.001     +0.002     -0.011
      +0.814     +0.362     -0.300
      -0.000     +0.000     +0.000
