[Molden Format]
[FR-COORD] # Coordinates in bohr
  C    +1.794881    -1.241569    -0.000007 
  C    -0.040091    +1.005889    -0.000004 
  O    -2.579498    +0.038630    +0.000012 
  H    +4.067175    -0.354074    -0.000005 
  H    +1.643758    -2.392705    +1.691595 
  H    +1.643759    -2.392702    -1.691610 
  H    +0.309047    +2.184188    +1.670238 
  H    +0.309030    +2.184178    -1.670255 
  H    -3.645905    +1.578701    +0.000010 
  H    +5.703088    +0.289819    -0.000004 
[FREQ] # Frequencies in cm^-1
 -1992.5337
  104.0897
  254.3165
  259.5904
  436.6086
  514.9236
  705.2834
  897.8553
  975.2418
 1035.0680
 1048.0566
 1127.4816
 1137.5708
 1164.2895
 1265.3961
 1314.0982
 1364.0476
 1421.9142
 1547.5233
 2582.5377
 2638.6489
 2715.1669
 2803.8183
 3077.6332
[FR-NORM-COORD] # Displacements in bohr
vibration  1
      +0.255     +0.093     +0.000
      -0.012     -0.013     +0.000
      +0.003     +0.001     -0.000
      -0.827     -0.323     -0.000
      -0.053     -0.003     -0.028
      -0.053     -0.003     +0.028
      -0.003     -0.000     -0.002
      -0.003     -0.000     +0.002
      -0.001     -0.001     +0.000
      +0.337     +0.132     +0.000
vibration  2
      +0.000     -0.000     +0.199
      +0.000     +0.000     +0.294
      -0.000     -0.000     -0.376
      +0.000     +0.000     -0.270
      +0.203     +0.111     +0.175
      -0.203     -0.111     +0.175
      -0.114     -0.115     +0.225
      +0.114     +0.115     +0.225
      -0.000     +0.000     -0.101
      +0.000     +0.000     -0.572
vibration  3
      +0.000     -0.000     +0.078
      +0.000     -0.000     -0.131
      -0.000     +0.000     -0.319
      -0.000     +0.000     +0.024
      -0.015     +0.071     +0.079
      +0.015     -0.071     +0.079
      -0.034     +0.003     -0.053
      +0.034     -0.003     -0.053
      +0.000     +0.000     +0.918
      -0.000     +0.000     +0.032
vibration  4
      +0.030     -0.292     -0.000
      +0.077     -0.254     +0.000
      -0.115     +0.270     +0.000
      -0.112     +0.166     -0.000
      +0.087     -0.118     +0.008
      +0.087     -0.118     -0.008
      +0.106     -0.122     -0.003
      +0.106     -0.122     +0.003
      +0.099     +0.193     -0.000
      -0.307     +0.693     -0.000
vibration  5
      -0.356     -0.070     -0.000
      +0.174     +0.269     -0.000
      +0.491     -0.230     -0.000
      -0.126     -0.087     -0.000
      -0.323     -0.001     +0.003
      -0.323     -0.001     -0.003
      +0.074     +0.104     +0.005
      +0.074     +0.104     -0.005
      -0.020     -0.220     +0.000
      -0.295     +0.265     +0.000
vibration  6
      -0.000     -0.000     +0.277
      +0.000     +0.000     +0.020
      +0.000     -0.000     -0.018
      -0.000     -0.000     +0.262
      -0.351     -0.324     -0.136
      +0.351     +0.324     -0.136
      -0.057     +0.131     -0.072
      +0.057     -0.131     -0.072
      -0.000     -0.000     +0.034
      -0.000     +0.000     -0.556
vibration  7
      -0.000     -0.000     +0.111
      +0.000     +0.000     +0.230
      +0.000     -0.000     -0.112
      +0.000     -0.000     -0.162
      +0.384     -0.296     -0.121
      -0.384     +0.296     -0.121
      -0.119     +0.385     -0.152
      +0.119     -0.385     -0.152
      +0.000     +0.000     +0.033
      -0.000     +0.000     +0.157
vibration  8
      +0.327     -0.030     -0.000
      +0.007     +0.019     +0.000
      -0.182     -0.008     +0.000
      +0.455     -0.431     +0.000
      -0.332     -0.037     -0.046
      -0.332     -0.037     +0.046
      -0.169     +0.067     -0.006
      -0.169     +0.067     +0.006
      +0.033     +0.071     -0.000
      +0.214     +0.347     +0.000
vibration  9
      -0.078     +0.313     -0.000
      +0.065     -0.387     +0.000
      +0.065     -0.098     +0.000
      -0.033     +0.258     +0.000
      -0.304     +0.232     +0.031
      -0.304     +0.232     -0.031
      -0.006     -0.228     +0.033
      -0.006     -0.228     -0.033
      +0.437     +0.249     -0.000
      +0.064     -0.058     -0.000
vibration  10
      -0.000     -0.000     -0.025
      +0.000     +0.000     +0.341
      +0.000     -0.000     -0.261
      -0.000     -0.000     +0.084
      -0.025     +0.038     +0.015
      +0.025     -0.038     +0.015
      +0.620     +0.118     -0.054
      -0.620     -0.118     -0.054
      +0.000     +0.000     -0.012
      -0.000     -0.000     -0.031
vibration  11
      -0.040     -0.117     +0.000
      -0.078     +0.001     -0.000
      +0.287     +0.020     +0.000
      -0.087     -0.094     -0.000
      +0.159     -0.074     +0.001
      +0.159     -0.074     -0.001
      -0.500     +0.149     -0.002
      -0.500     +0.149     +0.002
      +0.432     +0.225     -0.000
      -0.183     -0.055     +0.000
vibration  12
      +0.000     -0.000     +0.066
      -0.000     -0.000     -0.284
      +0.000     +0.000     +0.032
      +0.000     +0.000     +0.642
      +0.405     -0.118     -0.012
      -0.405     +0.118     -0.012
      +0.104     -0.219     -0.003
      -0.104     +0.219     -0.003
      -0.000     -0.000     -0.004
      +0.000     +0.000     -0.167
vibration  13
      +0.107     -0.222     +0.000
      -0.050     +0.051     +0.000
      +0.102     +0.087     -0.000
      -0.062     +0.655     -0.000
      -0.219     -0.284     -0.130
      -0.219     -0.284     +0.130
      -0.111     +0.091     -0.022
      -0.111     +0.091     +0.022
      -0.076     -0.053     +0.000
      +0.373     -0.041     +0.000
vibration  14
      +0.000     -0.000     -0.447
      +0.000     +0.000     +0.314
      -0.000     -0.000     -0.012
      -0.000     +0.000     +0.513
      -0.001     +0.302     -0.006
      +0.001     -0.302     -0.006
      -0.206     +0.273     -0.001
      +0.206     -0.273     -0.001
      -0.000     +0.000     +0.007
      +0.000     -0.000     -0.146
vibration  15
      +0.087     -0.034     +0.000
      +0.222     +0.052     -0.000
      -0.395     -0.341     +0.000
      -0.092     +0.101     -0.000
      -0.028     -0.031     -0.015
      -0.028     -0.031     +0.015
      +0.178     +0.379     -0.259
      +0.178     +0.379     +0.259
      +0.296     +0.208     -0.000
      -0.146     -0.088     -0.000
vibration  16
      -0.193     +0.412     +0.000
      -0.202     +0.085     +0.000
      +0.042     -0.112     +0.000
      +0.084     -0.141     -0.000
      +0.086     -0.369     -0.369
      +0.086     -0.369     +0.369
      +0.159     -0.097     +0.042
      +0.159     -0.097     -0.042
      +0.235     +0.110     -0.000
      +0.037     +0.064     +0.000
vibration  17
      +0.462     +0.191     +0.000
      +0.225     +0.008     -0.000
      -0.093     +0.070     +0.000
      -0.117     +0.049     +0.000
      -0.143     -0.104     -0.173
      -0.143     -0.104     +0.173
      -0.109     -0.100     +0.116
      -0.109     -0.100     -0.116
      -0.184     -0.070     +0.000
      -0.611     -0.255     -0.000
vibration  18
      -0.078     -0.174     +0.000
      +0.323     +0.516     -0.000
      -0.298     -0.241     +0.000
      -0.042     +0.082     +0.000
      +0.050     -0.008     +0.066
      +0.050     -0.008     -0.066
      -0.061     -0.198     +0.368
      -0.061     -0.198     -0.368
      +0.170     +0.139     -0.000
      +0.133     +0.034     +0.000
vibration  19
      +0.379     -0.233     -0.000
      -0.664     +0.296     +0.000
      +0.135     -0.063     -0.000
      -0.003     +0.034     +0.000
      -0.082     +0.055     +0.112
      -0.082     +0.055     -0.112
      +0.208     -0.066     +0.052
      +0.208     -0.066     -0.052
      +0.242     +0.095     -0.000
      -0.177     -0.083     -0.000
vibration  20
      -0.012     -0.015     +0.000
      -0.093     -0.346     -0.000
      +0.008     +0.019     -0.000
      +0.005     -0.003     +0.000
      -0.000     +0.050     -0.063
      -0.000     +0.050     +0.063
      +0.112     +0.377     +0.524
      +0.112     +0.377     -0.524
      +0.006     -0.023     +0.000
      +0.003     +0.001     +0.000
vibration  21
      +0.021     +0.344     -0.000
      +0.010     -0.065     -0.000
      +0.001     +0.004     -0.000
      +0.009     -0.007     +0.000
      -0.044     -0.373     +0.541
      -0.044     -0.373     -0.541
      +0.014     +0.036     +0.056
      +0.014     +0.036     -0.056
      -0.003     -0.004     +0.000
      -0.025     -0.008     -0.000
vibration  22
      +0.000     -0.000     +0.011
      -0.000     +0.000     -0.442
      +0.000     -0.000     +0.005
      -0.000     +0.000     +0.001
      +0.008     -0.009     +0.001
      -0.008     +0.009     +0.001
      +0.102     +0.352     +0.517
      -0.102     -0.352     +0.517
      -0.000     +0.000     +0.004
      +0.000     +0.000     +0.000
vibration  23
      -0.000     -0.000     -0.446
      -0.000     +0.000     +0.011
      +0.000     +0.000     -0.000
      -0.000     +0.000     +0.010
      -0.049     -0.347     +0.527
      +0.049     +0.347     +0.527
      -0.008     +0.008     -0.000
      +0.008     -0.008     -0.000
      -0.000     +0.000     -0.000
      +0.000     +0.000     -0.002
vibration  24
      +0.002     -0.001     -0.000
      +0.027     +0.019     -0.000
      -0.215     +0.264     -0.000
      -0.000     +0.000     +0.000
      +0.000     -0.001     +0.000
      +0.000     -0.001     -0.000
      -0.001     -0.007     -0.009
      -0.001     -0.007     +0.009
      +0.538     -0.770     +0.000
      -0.000     -0.000     +0.000
