[Molden Format]
[FR-COORD] # Coordinates in bohr
  C    +2.570183    -0.380686    -0.000399 
  C    -0.010193    +0.975845    -0.001168 
  O    -1.956784    -0.922002    +0.002099 
  H    +4.090229    +0.997456    -0.002238 
  H    +2.753866    -1.562678    +1.666421 
  H    +2.753022    -1.566208    -1.664801 
  H    -0.151014    +2.195973    +1.668053 
  H    -0.152324    +2.191568    -1.673478 
  H    -3.670521    +0.137652    +0.000272 
  H    -5.335939    +1.382326    -0.001568 
[FREQ] # Frequencies in cm^-1
 -1786.4377
  115.1622
  166.7933
  265.5931
  409.6290
  632.9475
  700.9354
  868.7631
 1004.1836
 1033.5321
 1058.5835
 1156.7944
 1261.0026
 1313.3964
 1315.1182
 1322.8119
 1394.8025
 1478.0084
 1561.2194
 2571.6752
 2591.7296
 2720.4463
 2793.3150
 2794.7254
[FR-NORM-COORD] # Displacements in bohr
vibration  1
      -0.001     +0.009     -0.000
      -0.024     -0.034     +0.000
      -0.034     +0.037     -0.000
      +0.005     -0.002     -0.000
      -0.002     +0.001     -0.002
      -0.002     +0.001     +0.002
      +0.005     +0.007     -0.004
      +0.005     +0.007     +0.004
      +0.652     -0.425     +0.001
      -0.507     +0.366     -0.001
vibration  2
      +0.000     +0.000     +0.196
      -0.000     -0.000     -0.214
      -0.000     -0.001     -0.384
      -0.000     +0.000     +0.064
      -0.065     +0.092     +0.153
      +0.065     -0.092     +0.153
      -0.077     +0.039     -0.125
      +0.077     -0.039     -0.125
      -0.000     +0.000     +0.239
      +0.000     +0.001     +0.767
vibration  3
      +0.000     -0.000     +0.001
      -0.000     -0.000     -0.230
      +0.000     +0.000     +0.253
      +0.000     +0.001     +0.536
      -0.270     -0.350     -0.217
      +0.270     +0.349     -0.218
      +0.016     +0.129     -0.187
      -0.016     -0.129     -0.187
      -0.000     +0.000     +0.068
      -0.000     -0.000     +0.050
vibration  4
      -0.086     -0.154     +0.000
      +0.107     +0.233     -0.000
      +0.173     +0.244     -0.001
      +0.084     -0.196     +0.000
      -0.143     -0.084     -0.002
      -0.143     -0.084     +0.003
      +0.081     +0.096     +0.004
      +0.081     +0.096     -0.004
      -0.015     -0.038     +0.000
      -0.482     -0.670     +0.001
vibration  5
      +0.328     +0.008     -0.000
      +0.089     -0.301     +0.000
      -0.481     +0.198     -0.000
      -0.048     +0.210     -0.000
      +0.320     +0.040     +0.006
      +0.320     +0.040     -0.007
      +0.102     -0.109     -0.005
      +0.102     -0.109     +0.005
      -0.091     +0.238     -0.000
      -0.369     -0.153     +0.000
vibration  6
      +0.000     +0.000     +0.024
      +0.000     +0.000     +0.095
      -0.000     +0.000     +0.141
      +0.000     -0.000     -0.040
      +0.090     -0.056     -0.040
      -0.090     +0.056     -0.040
      -0.035     +0.105     -0.038
      +0.035     -0.105     -0.037
      -0.000     -0.002     -0.877
      +0.000     +0.001     +0.382
vibration  7
      +0.000     +0.000     +0.183
      +0.000     +0.000     +0.220
      +0.000     -0.000     -0.139
      +0.000     -0.000     -0.144
      +0.371     -0.238     -0.133
      -0.371     +0.238     -0.134
      -0.291     +0.304     -0.157
      +0.291     -0.305     -0.156
      +0.000     +0.000     +0.209
      -0.000     -0.000     -0.075
vibration  8
      -0.414     -0.168     +0.000
      +0.052     -0.106     +0.000
      +0.231     +0.129     -0.000
      -0.610     +0.392     -0.000
      +0.065     +0.034     +0.042
      +0.065     +0.034     -0.042
      +0.282     -0.033     +0.010
      +0.282     -0.033     -0.010
      +0.073     -0.035     +0.000
      +0.077     -0.053     +0.000
vibration  9
      -0.092     +0.284     -0.000
      +0.205     -0.316     +0.001
      +0.050     -0.064     -0.000
      +0.046     +0.020     +0.000
      -0.361     +0.127     +0.026
      -0.360     +0.126     -0.026
      -0.005     -0.219     +0.036
      -0.006     -0.220     -0.036
      +0.324     +0.503     -0.001
      -0.056     -0.078     +0.000
vibration  10
      +0.000     -0.001     -0.019
      -0.000     +0.001     +0.337
      +0.000     -0.000     -0.270
      -0.000     +0.000     +0.057
      -0.020     +0.026     +0.016
      +0.021     -0.027     +0.016
      +0.525     +0.353     -0.057
      -0.526     -0.352     -0.056
      -0.000     -0.000     +0.022
      -0.000     +0.000     -0.013
vibration  11
      +0.020     +0.238     -0.000
      +0.147     +0.017     +0.000
      -0.274     -0.225     +0.000
      +0.140     -0.038     +0.000
      -0.212     +0.108     +0.018
      -0.212     +0.108     -0.018
      +0.483     +0.035     +0.006
      +0.482     +0.034     -0.007
      -0.287     -0.319     +0.001
      -0.028     +0.083     -0.000
vibration  12
      +0.000     +0.001     +0.386
      -0.000     -0.001     -0.420
      +0.000     +0.000     +0.032
      +0.000     -0.000     +0.005
      +0.364     -0.199     +0.002
      -0.364     +0.200     +0.001
      +0.331     -0.234     -0.001
      -0.331     +0.234     -0.001
      +0.000     -0.000     -0.012
      +0.000     -0.000     +0.002
vibration  13
      +0.100     +0.032     -0.000
      -0.030     -0.138     +0.000
      +0.138     +0.479     -0.001
      +0.049     +0.015     -0.000
      -0.104     +0.047     +0.037
      -0.104     +0.047     -0.037
      -0.104     -0.399     +0.229
      -0.104     -0.400     -0.228
      -0.254     -0.419     +0.001
      +0.061     +0.019     -0.000
vibration  14
      -0.390     +0.052     -0.000
      -0.236     +0.057     -0.000
      +0.026     -0.006     +0.000
      +0.249     -0.450     +0.001
      +0.322     +0.233     +0.087
      +0.322     +0.232     -0.088
      +0.167     -0.149     +0.148
      +0.167     -0.149     -0.148
      +0.158     +0.105     -0.000
      +0.071     -0.070     +0.000
vibration  15
      -0.000     +0.000     +0.307
      -0.000     +0.000     -0.003
      +0.000     -0.000     -0.007
      -0.000     -0.001     -0.712
      -0.351     -0.271     -0.012
      +0.351     +0.272     -0.013
      +0.046     -0.002     +0.008
      -0.046     +0.002     +0.007
      +0.000     +0.000     -0.001
      +0.000     -0.000     -0.000
vibration  16
      +0.091     -0.367     +0.000
      +0.199     +0.019     -0.000
      -0.014     -0.052     +0.000
      -0.069     -0.044     +0.000
      -0.065     +0.413     +0.428
      -0.065     +0.412     -0.429
      -0.142     +0.090     -0.078
      -0.142     +0.090     +0.078
      -0.104     -0.032     +0.000
      -0.081     +0.067     -0.000
vibration  17
      +0.048     +0.061     -0.000
      -0.220     -0.450     +0.001
      -0.105     +0.349     -0.001
      +0.118     -0.073     +0.000
      -0.051     +0.065     +0.033
      -0.051     +0.065     -0.033
      +0.041     +0.199     -0.291
      +0.041     +0.200     +0.290
      +0.238     -0.218     +0.000
      +0.379     -0.273     +0.000
vibration  18
      -0.381     +0.216     -0.000
      +0.345     -0.359     +0.000
      +0.234     +0.068     -0.000
      +0.061     -0.189     +0.000
      +0.124     +0.012     -0.116
      +0.124     +0.012     +0.116
      -0.123     +0.078     -0.230
      -0.123     +0.078     +0.230
      -0.366     -0.049     +0.000
      -0.268     +0.216     -0.000
vibration  19
      +0.235     -0.062     -0.000
      -0.627     -0.187     +0.000
      +0.432     +0.005     -0.000
      +0.070     +0.035     -0.000
      -0.079     +0.012     +0.063
      -0.079     +0.012     -0.063
      +0.168     +0.045     -0.061
      +0.168     +0.045     +0.061
      -0.214     +0.231     -0.000
      -0.294     +0.216     -0.000
vibration  20
      -0.224     +0.111     -0.000
      +0.010     +0.127     -0.000
      -0.004     -0.005     +0.000
      +0.383     +0.343     -0.000
      +0.054     -0.297     +0.411
      +0.054     -0.298     -0.411
      +0.019     -0.157     -0.208
      +0.019     -0.156     +0.209
      +0.006     -0.002     +0.000
      +0.000     -0.000     +0.000
vibration  21
      +0.115     -0.068     +0.000
      -0.058     +0.339     -0.000
      -0.013     -0.014     +0.000
      -0.170     -0.138     +0.000
      -0.015     +0.118     -0.171
      -0.015     +0.119     +0.171
      +0.040     -0.359     -0.483
      +0.040     -0.358     +0.484
      +0.018     -0.001     +0.000
      +0.001     -0.001     +0.000
vibration  22
      -0.000     -0.000     -0.012
      +0.000     +0.001     +0.443
      +0.000     +0.000     -0.005
      -0.000     -0.000     -0.002
      -0.011     +0.004     +0.001
      +0.011     -0.004     +0.001
      +0.044     -0.364     -0.517
      -0.045     +0.362     -0.518
      -0.000     -0.000     -0.003
      -0.000     +0.000     -0.001
vibration  23
      +0.203     +0.392     -0.001
      -0.004     -0.009     +0.000
      -0.004     +0.003     -0.000
      -0.535     -0.495     +0.001
      +0.026     -0.220     +0.298
      +0.026     -0.220     -0.296
      +0.005     -0.003     +0.001
      +0.005     -0.003     -0.001
      -0.002     -0.002     +0.000
      +0.000     -0.000     +0.000
vibration  24
      -0.000     -0.001     -0.441
      +0.000     +0.000     +0.009
      +0.000     -0.000     -0.000
      +0.001     +0.001     +0.011
      +0.053     -0.358     +0.520
      -0.053     +0.360     +0.520
      -0.010     +0.006     +0.001
      +0.010     -0.006     +0.001
      +0.000     +0.000     -0.000
      -0.000     +0.000     +0.000
