[Molden Format]
[FR-COORD] # Coordinates in bohr
  C    +2.222602    +0.035670    -0.438444 
  C    -0.360740    -0.959881    +0.459783 
  O    -2.427881    +0.660212    -0.211557 
  H    +2.710129    +2.115006    +0.741481 
  H    +3.763266    -1.233251    +0.036982 
  H    +2.243634    +0.515361    -2.433456 
  H    -0.295134    -1.289053    +2.506372 
  H    -0.736785    -2.784765    -0.441844 
  H    -2.056564    +2.263186    +0.682932 
  H    +3.061523    +3.612504    +1.602113 
[FREQ] # Frequencies in cm^-1
 -2097.9189
  135.7575
  325.2230
  381.9367
  440.4293
  618.1256
  770.9743
  865.1697
  995.2642
 1047.5546
 1105.2169
 1126.1293
 1181.2919
 1188.6528
 1300.3669
 1383.6656
 1505.1443
 1673.9224
 1725.7104
 2592.9298
 2636.2492
 2727.2826
 2801.2207
 4227.9604
[FR-NORM-COORD] # Displacements in bohr
vibration  1
      +0.062     +0.247     +0.137
      +0.003     -0.012     -0.010
      +0.000     -0.001     +0.001
      -0.175     -0.733     -0.419
      -0.035     -0.028     -0.035
      -0.010     -0.058     +0.004
      -0.003     -0.001     -0.002
      -0.000     +0.002     -0.002
      +0.002     +0.000     -0.000
      +0.084     +0.346     +0.198
vibration  2
      -0.040     +0.077     -0.067
      +0.029     +0.126     +0.188
      -0.087     -0.195     -0.229
      +0.236     -0.173     +0.225
      -0.047     -0.129     -0.356
      -0.185     +0.302     +0.035
      +0.024     +0.249     +0.109
      +0.056     -0.045     +0.255
      -0.039     +0.030     -0.191
      +0.305     -0.240     +0.309
vibration  3
      -0.110     -0.072     -0.117
      +0.029     -0.135     +0.093
      +0.297     +0.133     +0.003
      -0.335     -0.053     +0.091
      +0.063     +0.072     -0.137
      -0.161     +0.073     -0.024
      +0.049     +0.042     +0.054
      -0.084     -0.077     +0.125
      +0.334     +0.148     -0.313
      -0.574     -0.045     +0.230
vibration  4
      +0.058     +0.064     +0.059
      -0.014     +0.029     -0.143
      -0.288     -0.135     +0.264
      +0.100     +0.027     +0.006
      -0.033     +0.001     +0.143
      +0.172     -0.022     +0.014
      +0.031     -0.090     -0.072
      +0.017     +0.046     -0.138
      +0.391     +0.264     -0.659
      +0.202     +0.009     -0.034
vibration  5
      +0.238     -0.112     -0.224
      +0.081     +0.271     -0.143
      -0.314     -0.060     +0.138
      -0.063     -0.104     +0.054
      -0.032     -0.104     +0.183
      +0.367     -0.163     -0.118
      +0.185     +0.264     -0.040
      -0.008     +0.038     +0.112
      -0.176     -0.022     +0.088
      -0.314     -0.190     +0.357
vibration  6
      -0.256     +0.173     -0.155
      -0.023     -0.127     +0.024
      +0.164     +0.031     -0.036
      -0.098     +0.082     -0.086
      +0.030     +0.385     +0.314
      -0.044     -0.344     -0.164
      +0.033     -0.021     +0.013
      -0.017     -0.064     +0.034
      +0.061     -0.025     +0.039
      +0.385     -0.310     +0.397
vibration  7
      -0.084     -0.001     -0.044
      -0.115     -0.251     -0.222
      +0.041     +0.056     +0.047
      -0.164     -0.091     +0.110
      +0.024     +0.131     +0.130
      +0.369     +0.407     +0.086
      +0.181     +0.275     -0.039
      -0.259     -0.269     +0.316
      +0.105     -0.058     +0.099
      +0.204     +0.064     -0.221
vibration  8
      +0.386     -0.158     +0.001
      -0.091     -0.069     +0.061
      -0.260     +0.070     -0.001
      +0.005     -0.032     -0.065
      +0.617     +0.403     -0.173
      -0.060     +0.018     +0.015
      -0.270     -0.029     +0.036
      -0.256     +0.010     +0.028
      -0.071     +0.036     -0.025
      +0.039     -0.055     +0.040
vibration  9
      +0.075     +0.082     +0.078
      -0.048     -0.201     -0.275
      -0.121     +0.162     +0.134
      +0.148     +0.098     -0.035
      -0.002     -0.065     -0.102
      -0.099     -0.155     -0.018
      -0.393     +0.310     -0.050
      +0.489     -0.334     +0.160
      +0.244     -0.071     +0.125
      -0.062     +0.044     +0.085
vibration  10
      +0.106     +0.320     -0.138
      -0.206     -0.177     +0.168
      +0.125     -0.084     -0.012
      +0.404     +0.195     -0.193
      -0.161     -0.132     -0.083
      +0.345     +0.014     -0.103
      -0.238     -0.180     +0.076
      -0.362     -0.056     +0.121
      +0.039     -0.031     +0.005
      -0.176     +0.099     +0.194
vibration  11
      -0.088     -0.124     -0.290
      -0.044     +0.075     +0.314
      +0.016     +0.039     +0.009
      -0.194     -0.133     -0.115
      -0.013     +0.063     +0.080
      +0.386     +0.322     -0.036
      -0.385     -0.178     +0.126
      +0.460     +0.040     -0.067
      -0.002     +0.019     -0.009
      +0.032     -0.167     -0.093
vibration  12
      -0.002     +0.006     +0.021
      -0.057     -0.214     +0.169
      -0.327     +0.353     -0.216
      +0.217     -0.019     -0.049
      +0.057     +0.060     -0.011
      +0.060     -0.003     +0.008
      +0.528     -0.378     +0.018
      +0.284     -0.203     +0.158
      -0.018     +0.056     -0.001
      -0.097     +0.021     +0.030
vibration  13
      -0.173     +0.033     -0.173
      -0.025     +0.035     -0.005
      +0.073     -0.058     +0.029
      +0.540     -0.431     +0.352
      +0.050     +0.318     +0.280
      -0.095     -0.041     -0.089
      -0.078     +0.068     +0.006
      +0.022     +0.038     -0.062
      +0.019     -0.019     +0.010
      -0.246     +0.087     -0.201
vibration  14
      -0.088     -0.221     +0.119
      +0.007     +0.046     -0.114
      +0.044     -0.055     +0.032
      +0.298     +0.090     -0.590
      +0.011     +0.067     +0.292
      -0.211     +0.419     +0.192
      +0.076     +0.130     -0.042
      -0.002     +0.028     -0.063
      +0.018     -0.017     +0.006
      -0.156     -0.200     +0.149
vibration  15
      +0.282     +0.052     -0.191
      +0.215     +0.081     -0.089
      -0.079     +0.056     -0.003
      -0.113     -0.022     +0.084
      -0.159     -0.143     +0.404
      -0.387     +0.164     -0.064
      -0.227     -0.376     -0.095
      -0.113     -0.141     +0.399
      -0.044     +0.032     -0.017
      +0.054     +0.018     -0.031
vibration  16
      -0.331     -0.087     +0.207
      +0.076     +0.392     -0.265
      +0.142     -0.098     +0.076
      +0.080     -0.036     -0.073
      +0.102     +0.156     -0.273
      +0.205     -0.130     +0.094
      -0.093     -0.342     -0.217
      +0.020     -0.078     +0.433
      -0.074     +0.022     -0.033
      -0.056     -0.077     -0.017
vibration  17
      -0.273     +0.016     +0.074
      +0.749     -0.271     +0.039
      -0.259     +0.192     -0.058
      +0.058     -0.027     -0.050
      -0.107     +0.027     -0.067
      +0.136     -0.027     +0.044
      -0.210     +0.087     +0.070
      -0.211     +0.022     -0.066
      -0.098     +0.080     -0.025
      -0.044     -0.079     -0.036
vibration  18
      +0.014     +0.052     +0.042
      +0.093     +0.192     +0.096
      -0.225     -0.086     -0.185
      -0.032     -0.052     -0.021
      -0.003     +0.006     -0.026
      +0.008     -0.021     +0.018
      +0.032     -0.088     +0.019
      -0.115     +0.180     +0.038
      +0.717     -0.381     +0.307
      -0.032     -0.152     -0.089
vibration  19
      -0.192     -0.394     -0.164
      +0.111     +0.082     +0.024
      -0.056     -0.012     -0.035
      +0.058     +0.187     +0.096
      +0.074     +0.032     +0.048
      +0.033     +0.091     -0.029
      -0.030     -0.026     -0.002
      +0.022     +0.071     +0.006
      +0.123     -0.067     +0.058
      +0.158     +0.690     +0.398
vibration  20
      +0.020     -0.031     -0.022
      +0.038     +0.297     -0.198
      +0.002     -0.012     +0.000
      -0.005     -0.005     +0.000
      -0.067     +0.064     -0.026
      -0.010     -0.028     +0.100
      +0.022     -0.119     +0.697
      -0.105     -0.524     -0.249
      +0.022     -0.016     +0.012
      +0.003     +0.011     +0.006
vibration  21
      -0.242     +0.102     +0.220
      +0.032     +0.048     -0.045
      +0.003     -0.002     +0.000
      +0.008     -0.000     -0.005
      +0.500     -0.403     +0.149
      +0.012     +0.152     -0.633
      +0.008     -0.016     +0.105
      -0.017     -0.067     -0.030
      +0.003     -0.002     +0.002
      -0.011     -0.037     -0.020
vibration  22
      +0.006     +0.002     +0.006
      -0.062     -0.232     -0.375
      +0.009     +0.008     +0.012
      +0.007     +0.006     +0.000
      -0.009     +0.007     -0.001
      -0.009     -0.005     +0.007
      +0.017     -0.077     +0.564
      +0.128     +0.603     +0.309
      -0.034     +0.011     -0.014
      -0.001     -0.004     -0.002
vibration  23
      -0.199     +0.229     -0.326
      +0.004     -0.006     +0.006
      +0.004     +0.000     -0.000
      +0.005     -0.005     +0.008
      +0.469     -0.392     +0.153
      +0.001     -0.151     +0.618
      -0.010     -0.004     +0.005
      +0.001     +0.003     +0.002
      -0.001     +0.001     -0.001
      -0.001     +0.002     -0.002
vibration  24
      +0.000     -0.001     +0.000
      +0.014     -0.004     +0.008
      +0.034     +0.215     +0.110
      -0.001     -0.001     -0.000
      +0.000     -0.000     -0.000
      +0.000     +0.000     -0.000
      +0.001     -0.002     -0.003
      -0.001     -0.003     -0.002
      -0.183     -0.834     -0.459
      +0.000     +0.000     +0.000
