[Molden Format]
[FR-COORD] # Coordinates in bohr
  C    +1.958404    -1.257385    -0.000008 
  C    +0.123432    +0.990073    -0.000005 
  O    -2.415975    +0.022814    +0.000011 
  H    +4.230698    -0.369890    -0.000006 
  H    +1.807281    -2.408521    +1.691594 
  H    +1.807282    -2.408518    -1.691611 
  H    +0.472570    +2.168372    +1.670237 
  H    +0.472553    +2.168362    -1.670256 
  H    -3.482382    +1.562885    +0.000009 
  H    +5.866611    +0.274003    -0.000005 
[FREQ] # Frequencies in cm^-1
 -2660.4756
  116.3060
  256.9569
  268.7421
  470.4897
  650.3774
  963.3953
 1047.0804
 1143.2152
 1287.3041
 1314.6909
 1342.2093
 1426.7740
 1506.6138
 1572.4355
 1573.7684
 1686.1372
 1782.9517
 1838.9323
 3077.2854
 3541.1746
 3624.1811
 3652.3651
 3767.5122
[FR-NORM-COORD] # Displacements in bohr
vibration  1
      -0.191     -0.068     -0.000
      +0.015     +0.011     -0.000
      -0.001     -0.003     +0.000
      +0.864     +0.339     +0.000
      +0.066     +0.009     +0.024
      +0.066     +0.009     -0.024
      +0.001     +0.001     +0.001
      +0.001     +0.001     -0.001
      +0.002     +0.001     -0.000
      -0.275     -0.108     -0.000
vibration  2
      -0.000     +0.000     -0.237
      -0.000     -0.000     -0.365
      +0.000     +0.000     +0.372
      -0.000     -0.000     +0.209
      -0.160     -0.082     -0.138
      +0.160     +0.082     -0.138
      +0.088     +0.093     -0.189
      -0.088     -0.093     -0.189
      +0.000     -0.000     +0.091
      -0.000     -0.000     +0.643
vibration  3
      -0.000     +0.000     -0.126
      -0.000     +0.000     +0.157
      +0.000     -0.000     +0.320
      +0.000     -0.000     -0.020
      +0.010     -0.063     -0.079
      -0.010     +0.063     -0.079
      +0.024     -0.018     +0.056
      -0.024     +0.018     +0.056
      -0.000     -0.000     -0.910
      +0.000     -0.000     -0.021
vibration  4
      -0.040     +0.320     +0.000
      -0.096     +0.275     -0.000
      +0.096     -0.256     -0.000
      +0.077     -0.111     +0.000
      -0.061     +0.090     -0.006
      -0.061     +0.090     +0.006
      -0.080     +0.091     +0.003
      -0.080     +0.091     -0.003
      -0.109     -0.190     +0.000
      +0.317     -0.719     -0.000
vibration  5
      +0.455     +0.091     -0.000
      -0.164     -0.316     +0.000
      -0.507     +0.201     +0.000
      +0.118     +0.091     +0.000
      +0.252     +0.005     -0.003
      +0.252     +0.005     +0.003
      -0.052     -0.081     -0.006
      -0.052     -0.081     +0.006
      +0.033     +0.223     -0.000
      +0.319     -0.198     -0.000
vibration  6
      +0.000     +0.000     -0.258
      -0.000     -0.000     +0.028
      -0.000     +0.000     +0.002
      +0.000     +0.000     -0.332
      +0.377     +0.343     +0.192
      -0.377     -0.343     +0.192
      +0.036     -0.096     +0.068
      -0.036     +0.096     +0.068
      +0.000     +0.000     -0.020
      +0.000     -0.000     +0.445
vibration  7
      +0.000     -0.000     -0.075
      -0.000     -0.000     -0.254
      -0.000     +0.000     +0.108
      -0.000     +0.000     +0.193
      -0.341     +0.278     +0.138
      +0.341     -0.278     +0.138
      +0.065     -0.417     +0.209
      -0.065     +0.417     +0.209
      -0.000     -0.000     -0.022
      +0.000     -0.000     -0.108
vibration  8
      +0.257     -0.384     -0.000
      +0.028     +0.359     -0.000
      -0.166     +0.142     -0.000
      +0.157     -0.166     -0.000
      +0.017     -0.129     -0.008
      +0.017     -0.129     +0.008
      +0.054     +0.097     +0.002
      +0.054     +0.097     -0.002
      -0.596     -0.314     +0.000
      +0.159     +0.138     +0.000
vibration  9
      -0.118     +0.002     +0.000
      -0.042     -0.047     +0.000
      +0.176     +0.161     -0.000
      -0.352     +0.312     -0.000
      +0.415     -0.002     +0.029
      +0.415     -0.002     -0.029
      +0.129     -0.054     +0.001
      +0.129     -0.054     -0.001
      -0.293     -0.199     +0.000
      -0.332     -0.288     -0.000
vibration  10
      +0.166     -0.326     -0.000
      -0.394     +0.300     +0.000
      +0.218     -0.013     -0.000
      -0.032     -0.098     +0.000
      +0.200     -0.127     -0.001
      +0.200     -0.127     +0.001
      -0.341     +0.174     -0.003
      -0.341     +0.174     +0.003
      +0.325     +0.153     -0.000
      -0.160     -0.049     -0.000
vibration  11
      +0.258     +0.088     -0.000
      +0.395     +0.215     +0.000
      -0.421     -0.244     +0.000
      -0.060     -0.258     +0.000
      +0.035     +0.047     +0.006
      +0.035     +0.047     -0.006
      +0.059     +0.086     -0.005
      +0.059     +0.086     +0.005
      +0.086     +0.111     -0.000
      -0.583     -0.167     -0.000
vibration  12
      +0.000     -0.000     +0.235
      +0.000     +0.000     -0.448
      -0.000     -0.000     +0.177
      -0.000     -0.000     -0.150
      +0.201     -0.228     -0.069
      -0.201     +0.228     -0.069
      -0.415     -0.245     +0.123
      +0.415     +0.245     +0.123
      +0.000     +0.000     +0.005
      -0.000     -0.000     +0.046
vibration  13
      -0.325     -0.220     +0.000
      +0.236     +0.349     -0.000
      -0.275     -0.291     +0.000
      -0.130     +0.348     -0.000
      +0.183     -0.060     +0.030
      +0.183     -0.060     -0.030
      +0.136     +0.087     -0.001
      +0.136     +0.087     +0.001
      +0.230     +0.152     -0.000
      +0.401     +0.068     +0.000
vibration  14
      -0.000     -0.000     -0.307
      -0.000     -0.000     +0.161
      +0.000     +0.000     +0.077
      -0.000     +0.000     +0.144
      -0.152     +0.234     +0.050
      +0.152     -0.234     +0.050
      -0.538     +0.236     -0.007
      +0.538     -0.236     -0.007
      -0.000     -0.000     +0.012
      +0.000     -0.000     -0.035
vibration  15
      +0.000     -0.000     +0.127
      +0.000     -0.000     +0.060
      -0.000     +0.000     -0.003
      -0.000     +0.000     -0.822
      -0.371     -0.021     -0.011
      +0.371     +0.021     -0.011
      -0.030     +0.040     -0.002
      +0.030     -0.040     -0.002
      -0.000     -0.000     -0.000
      -0.000     -0.000     +0.151
vibration  16
      +0.330     -0.175     -0.000
      +0.102     -0.004     -0.000
      -0.024     +0.028     +0.000
      -0.206     +0.678     +0.000
      -0.354     -0.026     -0.015
      -0.354     -0.026     +0.015
      -0.141     +0.074     -0.015
      -0.141     +0.074     +0.015
      -0.043     -0.011     +0.000
      -0.095     -0.180     -0.000
vibration  17
      -0.213     -0.068     +0.000
      +0.488     -0.206     -0.000
      -0.030     +0.104     -0.000
      -0.025     -0.064     -0.000
      +0.113     +0.197     +0.155
      +0.113     +0.197     -0.155
      -0.466     +0.111     +0.004
      -0.466     +0.111     -0.004
      -0.167     -0.063     +0.000
      +0.097     +0.047     +0.000
vibration  18
      +0.122     -0.308     -0.000
      -0.225     +0.098     +0.000
      +0.020     -0.027     -0.000
      -0.014     -0.017     +0.000
      -0.043     +0.487     +0.382
      -0.043     +0.487     -0.382
      +0.147     -0.072     +0.025
      +0.147     -0.072     -0.025
      +0.058     +0.021     -0.000
      +0.000     -0.006     +0.000
vibration  19
      -0.021     -0.002     -0.000
      -0.092     -0.291     +0.000
      +0.011     +0.000     -0.000
      +0.011     -0.025     -0.000
      +0.003     +0.036     +0.026
      +0.003     +0.036     -0.026
      +0.161     +0.487     -0.434
      +0.161     +0.487     +0.434
      -0.001     -0.014     +0.000
      +0.008     +0.006     +0.000
vibration  20
      +0.001     -0.001     +0.000
      +0.024     +0.008     -0.000
      -0.215     +0.264     -0.000
      -0.000     +0.000     +0.000
      +0.001     -0.000     -0.001
      +0.001     -0.000     +0.001
      +0.004     +0.007     +0.013
      +0.004     +0.007     -0.013
      +0.538     -0.771     +0.000
      -0.000     -0.000     +0.000
vibration  21
      +0.004     -0.010     -0.000
      +0.062     +0.232     +0.000
      -0.002     +0.004     +0.000
      -0.002     +0.001     -0.000
      +0.003     +0.000     -0.007
      +0.003     +0.000     +0.007
      -0.116     -0.383     -0.557
      -0.116     -0.383     +0.557
      +0.009     -0.013     +0.000
      -0.000     -0.000     -0.000
vibration  22
      -0.021     -0.232     +0.000
      -0.008     +0.006     -0.000
      -0.000     -0.000     -0.000
      -0.002     +0.002     -0.000
      +0.044     +0.380     -0.571
      +0.044     +0.380     +0.571
      +0.000     +0.007     +0.005
      +0.000     +0.007     -0.005
      -0.000     +0.001     +0.000
      +0.010     +0.003     +0.000
vibration  23
      +0.000     +0.000     +0.019
      -0.000     +0.000     -0.316
      -0.000     +0.000     -0.000
      -0.000     +0.000     +0.001
      +0.006     +0.017     -0.029
      -0.006     -0.017     -0.029
      +0.110     +0.380     +0.540
      -0.110     -0.380     +0.540
      +0.000     -0.000     +0.003
      -0.000     +0.000     +0.000
vibration  24
      -0.000     -0.000     -0.322
      -0.000     +0.000     -0.014
      -0.000     +0.000     +0.000
      -0.000     +0.000     +0.001
      -0.049     -0.374     +0.552
      +0.049     +0.374     +0.552
      +0.002     +0.022     +0.027
      -0.002     -0.022     +0.027
      +0.000     -0.000     +0.000
      +0.000     +0.000     -0.000
