[Molden Format]
[FR-COORD] # Coordinates in bohr
  C    -2.166735    -0.790904    -0.063145 
  C    +0.105965    +1.021329    +0.051832 
  O    +2.491128    -0.257349    -0.174626 
  H    -4.202354    +0.549556    +0.049556 
  H    -2.278256    -1.824983    -1.831678 
  H    -2.263727    -2.068689    +1.541107 
  H    +0.007421    +2.351298    -1.526876 
  H    +0.017089    +2.127335    +1.803337 
  H    +2.529621    -1.407845    +1.303729 
  H    -5.671496    +1.510999    +0.132723 
[FREQ] # Frequencies in cm^-1
 -2665.5288
  121.5724
  260.2691
  288.4558
  484.4235
  656.0862
  931.4412
 1098.9453
 1113.9947
 1231.9226
 1298.7188
 1379.1426
 1443.7687
 1537.4473
 1570.8830
 1577.2746
 1666.6512
 1783.3472
 1815.1982
 3076.2055
 3561.4559
 3615.4180
 3684.5306
 3759.8777
[FR-NORM-COORD] # Displacements in bohr
vibration  1
      -0.174     +0.106     +0.009
      +0.014     -0.014     -0.001
      +0.001     +0.003     +0.001
      +0.775     -0.509     -0.043
      +0.062     -0.024     +0.022
      +0.062     -0.021     -0.025
      +0.000     -0.001     +0.001
      +0.000     -0.001     -0.001
      -0.002     +0.001     -0.001
      -0.246     +0.161     +0.014
vibration  2
      -0.004     +0.014     -0.256
      +0.000     +0.013     -0.325
      +0.023     -0.062     +0.296
      +0.003     -0.014     +0.210
      -0.136     +0.134     -0.141
      +0.129     -0.117     -0.162
      +0.061     -0.081     -0.170
      -0.062     +0.099     -0.157
      -0.062     +0.135     +0.229
      +0.009     -0.042     +0.653
vibration  3
      -0.130     -0.218     -0.073
      -0.117     -0.228     +0.097
      +0.019     +0.092     -0.115
      +0.067     +0.084     -0.011
      -0.062     -0.011     -0.050
      -0.097     -0.090     -0.047
      -0.081     -0.023     +0.067
      -0.054     -0.113     +0.055
      +0.377     +0.441     +0.266
      +0.331     +0.498     -0.011
vibration  4
      -0.002     +0.241     -0.047
      +0.118     +0.092     +0.145
      -0.118     -0.335     -0.194
      -0.078     -0.038     -0.018
      +0.039     +0.115     -0.043
      -0.004     +0.012     -0.060
      +0.061     +0.079     +0.084
      +0.104     -0.030     +0.078
      +0.297     +0.430     +0.350
      -0.333     -0.398     -0.070
vibration  5
      +0.441     -0.150     -0.016
      -0.077     +0.334     +0.063
      -0.497     -0.218     -0.078
      +0.097     -0.111     -0.008
      +0.259     -0.032     -0.018
      +0.242     -0.065     -0.016
      -0.031     +0.102     +0.024
      -0.004     +0.072     +0.034
      -0.220     +0.081     +0.095
      +0.337     +0.108     -0.002
vibration  6
      +0.000     -0.019     +0.258
      +0.000     -0.001     -0.026
      +0.012     +0.009     +0.010
      +0.002     -0.023     +0.331
      -0.293     +0.430     -0.160
      +0.285     -0.405     -0.225
      -0.054     -0.093     -0.082
      +0.049     +0.103     -0.069
      -0.021     -0.019     -0.013
      -0.006     +0.032     -0.437
vibration  7
      +0.022     +0.030     +0.031
      -0.029     -0.010     +0.256
      -0.106     +0.008     -0.023
      -0.005     +0.009     -0.175
      +0.365     +0.172     -0.110
      -0.305     -0.137     -0.128
      -0.065     -0.399     -0.259
      +0.054     +0.441     -0.202
      +0.277     -0.126     -0.120
      +0.007     -0.005     +0.104
vibration  8
      -0.323     -0.281     +0.049
      +0.112     +0.342     +0.020
      +0.326     -0.109     -0.076
      -0.333     -0.214     -0.072
      +0.255     -0.074     -0.024
      -0.001     -0.214     -0.073
      -0.047     +0.115     +0.020
      +0.209     +0.099     +0.018
      -0.254     +0.077     +0.087
      -0.211     +0.286     +0.050
vibration  9
      -0.088     +0.008     -0.121
      -0.082     +0.135     +0.023
      -0.094     -0.069     +0.103
      -0.241     -0.167     +0.099
      +0.013     -0.188     +0.069
      +0.463     +0.070     +0.055
      +0.285     +0.027     -0.028
      -0.180     +0.075     -0.021
      +0.564     -0.230     -0.140
      -0.125     +0.202     -0.033
vibration  10
      +0.225     +0.301     +0.079
      -0.208     -0.433     -0.107
      +0.039     +0.058     +0.008
      -0.182     +0.028     -0.031
      +0.460     +0.090     -0.002
      +0.304     -0.005     -0.038
      -0.207     -0.087     +0.023
      +0.006     -0.210     +0.014
      -0.126     +0.056     +0.036
      -0.294     +0.232     +0.033
vibration  11
      +0.041     -0.182     -0.036
      +0.527     -0.220     +0.033
      -0.460     +0.295     +0.016
      -0.045     +0.099     +0.022
      -0.051     -0.097     +0.012
      -0.004     -0.061     -0.009
      +0.331     -0.096     -0.029
      +0.221     -0.018     -0.011
      -0.116     +0.101     -0.040
      -0.295     +0.170     +0.010
vibration  12
      -0.339     +0.231     +0.099
      +0.080     -0.179     -0.146
      -0.123     +0.135     +0.068
      -0.174     -0.381     -0.074
      +0.209     +0.079     +0.005
      +0.066     -0.033     -0.043
      +0.199     +0.046     +0.028
      +0.303     -0.121     +0.013
      +0.021     +0.011     -0.021
      +0.532     -0.229     -0.007
vibration  13
      -0.089     +0.145     -0.278
      +0.024     -0.153     +0.452
      +0.142     +0.024     -0.191
      -0.088     -0.153     +0.164
      -0.161     -0.194     +0.064
      +0.284     +0.203     +0.063
      -0.030     -0.334     -0.095
      -0.055     +0.248     -0.054
      -0.342     +0.155     +0.064
      +0.137     -0.042     -0.050
vibration  14
      -0.006     +0.030     +0.209
      +0.010     -0.045     +0.021
      +0.093     -0.005     -0.178
      -0.040     -0.051     -0.060
      +0.142     +0.132     -0.014
      -0.128     -0.116     -0.042
      +0.565     +0.001     -0.015
      -0.681     -0.039     -0.012
      -0.196     +0.103     +0.025
      +0.025     -0.002     +0.014
vibration  15
      +0.296     +0.079     +0.081
      +0.084     -0.026     +0.010
      -0.047     -0.002     +0.014
      -0.284     -0.475     -0.502
      -0.479     +0.145     -0.006
      -0.084     +0.022     +0.005
      -0.162     -0.043     -0.012
      -0.084     -0.032     +0.013
      +0.019     -0.008     -0.005
      -0.043     +0.154     +0.099
vibration  16
      +0.205     +0.055     -0.104
      +0.047     -0.006     -0.074
      -0.041     -0.001     +0.027
      -0.181     -0.395     +0.649
      +0.098     -0.018     -0.009
      -0.497     +0.148     +0.035
      -0.079     +0.018     -0.001
      -0.060     -0.060     +0.008
      +0.042     -0.017     -0.009
      -0.034     +0.118     -0.115
vibration  17
      -0.206     +0.119     +0.017
      +0.533     +0.038     -0.053
      -0.132     -0.012     +0.043
      -0.024     +0.052     +0.012
      +0.110     -0.174     +0.109
      +0.080     -0.166     -0.138
      -0.532     -0.005     +0.014
      -0.467     -0.063     +0.002
      +0.066     -0.028     -0.025
      +0.097     -0.071     -0.007
vibration  18
      -0.169     -0.275     -0.018
      +0.190     +0.050     -0.004
      -0.034     +0.004     +0.008
      +0.010     -0.021     -0.006
      +0.138     +0.507     -0.356
      +0.151     +0.448     +0.423
      -0.121     -0.076     -0.063
      -0.116     -0.090     +0.055
      +0.007     -0.001     -0.006
      -0.006     -0.002     +0.000
vibration  19
      +0.006     -0.031     -0.003
      +0.049     -0.301     -0.018
      -0.017     +0.000     -0.002
      -0.014     -0.022     -0.003
      +0.013     +0.076     -0.051
      +0.019     +0.069     +0.062
      -0.055     +0.472     +0.468
      -0.057     +0.532     -0.395
      -0.012     +0.005     +0.001
      -0.007     +0.008     +0.001
vibration  20
      -0.000     -0.001     +0.001
      +0.025     -0.011     +0.001
      -0.031     +0.217     -0.260
      +0.000     -0.001     +0.000
      +0.000     +0.000     -0.001
      -0.001     -0.001     +0.000
      +0.005     +0.003     -0.006
      +0.001     -0.007     -0.008
      +0.023     -0.578     +0.741
      -0.000     +0.000     +0.000
vibration  21
      +0.006     +0.011     +0.003
      +0.012     -0.232     -0.079
      +0.001     +0.001     -0.002
      -0.002     -0.000     +0.000
      +0.003     -0.007     -0.017
      +0.002     -0.003     +0.008
      -0.029     +0.341     -0.411
      -0.036     +0.426     +0.686
      -0.004     +0.002     +0.004
      +0.000     +0.000     +0.000
vibration  22
      -0.030     -0.230     -0.001
      +0.009     +0.001     -0.004
      +0.000     +0.000     -0.000
      +0.002     +0.001     +0.000
      +0.041     +0.321     +0.568
      +0.040     +0.441     -0.567
      +0.001     +0.005     -0.003
      +0.001     +0.014     +0.017
      -0.001     -0.001     +0.000
      -0.009     +0.005     +0.000
vibration  23
      +0.000     +0.000     -0.026
      +0.006     -0.072     +0.307
      +0.001     -0.001     +0.001
      -0.000     -0.000     -0.001
      +0.000     +0.029     +0.050
      +0.003     -0.024     +0.034
      -0.039     +0.508     -0.608
      +0.020     -0.273     -0.437
      -0.006     +0.008     -0.008
      -0.000     +0.000     +0.000
vibration  24
      -0.003     +0.012     -0.321
      -0.000     +0.004     -0.022
      -0.000     +0.000     -0.000
      +0.000     +0.000     +0.001
      +0.038     +0.351     +0.604
      -0.030     -0.393     +0.496
      -0.001     -0.037     +0.042
      +0.003     +0.026     +0.038
      +0.001     -0.001     +0.001
      -0.000     +0.000     -0.000
