[Molden Format]
[FR-COORD] # Coordinates in bohr
  C    +1.834629    -1.205467    -0.000007 
  C    -0.000343    +1.041991    -0.000004 
  O    -2.539750    +0.074732    +0.000012 
  H    +4.106923    -0.317972    -0.000005 
  H    +1.683506    -2.356603    +1.691595 
  H    +1.683507    -2.356600    -1.691610 
  H    +0.348795    +2.220290    +1.670238 
  H    +0.348778    +2.220280    -1.670255 
  H    -3.606157    +1.614803    +0.000010 
  H    +5.742836    +0.325921    -0.000004 
[FREQ] # Frequencies in cm^-1
 -2097.5558
  115.6628
  314.0510
  345.2071
  474.8421
  581.0220
  717.1970
  947.1529
 1007.4176
 1035.5625
 1123.6479
 1138.7643
 1183.5879
 1184.2198
 1302.7743
 1382.3506
 1448.3008
 1701.2289
 1737.9388
 2582.8164
 2639.7742
 2715.1858
 2803.8237
 4223.9660
[FR-NORM-COORD] # Displacements in bohr
vibration  1
      +0.272     +0.099     +0.000
      -0.011     -0.013     +0.000
      +0.003     +0.001     -0.000
      -0.804     -0.314     -0.000
      -0.051     -0.002     -0.027
      -0.051     -0.002     +0.027
      -0.003     -0.000     -0.002
      -0.003     -0.000     +0.002
      -0.001     -0.001     -0.000
      +0.377     +0.148     +0.000
vibration  2
      -0.000     +0.000     -0.152
      -0.000     -0.000     -0.262
      +0.000     +0.000     +0.359
      -0.000     -0.000     +0.374
      -0.254     -0.146     -0.184
      +0.254     +0.146     -0.184
      +0.102     +0.110     -0.206
      -0.102     -0.110     -0.206
      +0.000     -0.000     +0.057
      -0.000     -0.000     +0.517
vibration  3
      +0.106     -0.239     -0.000
      +0.028     -0.292     +0.000
      -0.219     +0.332     -0.000
      -0.123     +0.287     +0.000
      +0.175     -0.101     +0.009
      +0.175     -0.101     -0.009
      +0.090     -0.136     -0.005
      +0.090     -0.136     +0.005
      +0.065     +0.166     +0.000
      -0.233     +0.608     +0.000
vibration  4
      +0.000     -0.000     -0.049
      +0.000     -0.000     +0.105
      -0.000     +0.000     +0.230
      -0.000     +0.000     -0.028
      +0.019     -0.065     -0.063
      -0.019     +0.065     -0.063
      +0.012     +0.014     +0.036
      -0.012     -0.014     +0.036
      -0.000     -0.000     -0.954
      -0.000     +0.000     -0.041
vibration  5
      -0.362     -0.111     -0.000
      +0.164     +0.207     -0.000
      +0.462     -0.215     -0.000
      -0.187     +0.050     +0.000
      -0.293     -0.016     +0.007
      -0.293     -0.016     -0.007
      +0.086     +0.075     +0.005
      +0.086     +0.075     -0.005
      -0.003     -0.138     -0.000
      -0.303     +0.426     +0.000
vibration  6
      -0.000     -0.000     +0.298
      +0.000     +0.000     +0.061
      +0.000     -0.000     -0.040
      -0.000     -0.000     +0.087
      -0.264     -0.355     -0.140
      +0.264     +0.355     -0.140
      -0.079     +0.188     -0.091
      +0.079     -0.188     -0.091
      +0.000     -0.000     +0.058
      -0.000     +0.000     -0.604
vibration  7
      -0.000     -0.000     +0.057
      +0.000     +0.000     +0.222
      +0.000     -0.000     -0.109
      +0.000     -0.000     -0.125
      +0.436     -0.240     -0.102
      -0.436     +0.240     -0.102
      -0.105     +0.359     -0.141
      +0.105     -0.359     -0.141
      +0.000     +0.000     +0.047
      -0.000     +0.000     +0.287
vibration  8
      +0.409     -0.040     -0.000
      +0.032     +0.020     +0.000
      -0.180     +0.016     +0.000
      +0.423     -0.381     -0.000
      -0.334     -0.046     -0.053
      -0.334     -0.046     +0.053
      -0.187     +0.083     -0.009
      -0.187     +0.083     +0.009
      +0.020     +0.052     -0.000
      +0.051     +0.387     -0.000
vibration  9
      +0.005     +0.351     -0.000
      +0.115     -0.377     -0.000
      -0.075     -0.038     +0.000
      +0.040     +0.205     -0.000
      -0.343     +0.264     +0.033
      -0.343     +0.264     -0.033
      +0.210     -0.293     +0.039
      +0.210     -0.293     -0.039
      +0.114     +0.083     -0.000
      +0.091     -0.052     +0.000
vibration  10
      +0.000     -0.000     +0.018
      -0.000     +0.000     -0.342
      +0.000     +0.000     +0.261
      +0.000     -0.000     -0.058
      +0.040     -0.035     -0.015
      -0.040     +0.035     -0.015
      -0.620     -0.118     +0.053
      +0.620     +0.118     +0.053
      -0.000     -0.000     +0.018
      -0.000     +0.000     +0.037
vibration  11
      -0.004     -0.046     +0.000
      -0.034     -0.252     -0.000
      +0.414     +0.202     -0.000
      -0.091     +0.244     +0.000
      -0.081     -0.009     +0.002
      -0.081     -0.009     -0.002
      -0.513     -0.047     +0.054
      -0.513     -0.047     -0.054
      +0.261     +0.148     -0.000
      +0.029     -0.114     -0.000
vibration  12
      -0.000     -0.000     -0.230
      +0.000     +0.000     +0.375
      -0.000     +0.000     -0.030
      -0.000     +0.000     -0.408
      -0.364     +0.222     +0.009
      +0.364     -0.222     +0.009
      -0.183     +0.304     +0.002
      +0.183     -0.304     +0.002
      +0.000     +0.000     +0.010
      -0.000     -0.000     +0.157
vibration  13
      -0.000     +0.000     -0.381
      +0.000     -0.000     +0.194
      +0.000     +0.000     -0.004
      +0.000     -0.000     +0.701
      +0.121     +0.233     -0.011
      -0.121     -0.233     -0.011
      -0.140     +0.174     -0.002
      +0.140     -0.174     -0.002
      +0.000     +0.000     +0.007
      -0.000     +0.000     -0.297
vibration  14
      -0.232     +0.121     +0.000
      -0.005     -0.115     -0.000
      +0.113     +0.039     -0.000
      +0.060     -0.614     -0.000
      +0.235     +0.307     +0.183
      +0.235     +0.307     -0.183
      -0.089     -0.140     +0.072
      -0.089     -0.140     -0.072
      +0.096     +0.053     -0.000
      -0.226     +0.170     +0.000
vibration  15
      +0.074     -0.322     +0.000
      +0.282     -0.121     -0.000
      -0.217     -0.105     +0.000
      -0.117     +0.133     +0.000
      -0.040     +0.299     +0.299
      -0.040     +0.299     -0.299
      -0.046     +0.328     -0.231
      -0.046     +0.328     +0.231
      +0.075     +0.072     -0.000
      -0.031     -0.087     -0.000
vibration  16
      -0.184     +0.379     +0.000
      -0.030     -0.404     +0.000
      +0.056     -0.046     -0.000
      +0.020     -0.148     -0.000
      +0.049     -0.152     -0.227
      +0.049     -0.152     +0.227
      +0.071     +0.262     -0.346
      +0.071     +0.262     +0.346
      +0.244     +0.145     -0.000
      -0.094     +0.024     +0.000
vibration  17
      +0.123     -0.177     -0.000
      -0.668     -0.166     +0.000
      +0.368     +0.213     -0.000
      +0.114     +0.001     +0.000
      -0.056     +0.110     +0.137
      -0.056     +0.110     -0.137
      +0.159     +0.045     -0.188
      +0.159     +0.045     +0.188
      -0.194     -0.169     +0.000
      +0.155     +0.060     +0.000
vibration  18
      -0.107     -0.144     -0.000
      -0.295     +0.278     +0.000
      -0.020     -0.250     +0.000
      +0.081     +0.044     +0.000
      +0.026     -0.011     +0.074
      +0.026     -0.011     -0.074
      +0.115     -0.004     +0.063
      +0.115     -0.004     -0.063
      +0.646     +0.402     -0.000
      +0.305     +0.115     +0.000
vibration  19
      +0.457     +0.013     +0.000
      -0.251     +0.124     +0.000
      +0.018     -0.060     +0.000
      -0.195     -0.053     -0.000
      -0.075     +0.018     -0.032
      -0.075     +0.018     +0.032
      +0.073     -0.018     +0.025
      +0.073     -0.018     -0.025
      +0.206     +0.126     -0.000
      -0.708     -0.286     -0.000
vibration  20
      -0.013     -0.015     +0.000
      -0.093     -0.347     -0.000
      +0.012     +0.015     -0.000
      +0.005     -0.003     +0.000
      -0.000     +0.049     -0.063
      -0.000     +0.049     +0.063
      +0.111     +0.377     +0.524
      +0.111     +0.377     -0.524
      -0.008     -0.015     +0.000
      +0.005     +0.002     +0.000
vibration  21
      -0.026     -0.345     +0.000
      -0.010     +0.065     +0.000
      -0.001     -0.005     +0.000
      -0.004     +0.009     -0.000
      +0.044     +0.373     -0.540
      +0.044     +0.373     +0.540
      -0.014     -0.035     -0.056
      -0.014     -0.035     +0.056
      +0.007     +0.005     -0.000
      +0.043     +0.014     +0.000
vibration  22
      +0.000     -0.000     +0.011
      -0.000     +0.000     -0.442
      -0.000     -0.000     +0.005
      -0.000     +0.000     +0.001
      +0.008     -0.009     +0.001
      -0.008     +0.009     +0.001
      +0.102     +0.352     +0.517
      -0.102     -0.352     +0.517
      +0.000     +0.000     +0.005
      +0.000     +0.000     +0.000
vibration  23
      -0.000     -0.000     -0.446
      -0.000     +0.000     +0.011
      -0.000     +0.000     -0.000
      -0.000     +0.000     +0.010
      -0.049     -0.347     +0.527
      +0.049     +0.347     +0.527
      -0.008     +0.008     -0.000
      +0.008     -0.008     -0.000
      -0.000     -0.000     -0.000
      +0.000     +0.000     -0.003
vibration  24
      +0.000     -0.001     +0.000
      +0.012     +0.012     -0.000
      -0.153     +0.191     -0.000
      -0.001     +0.000     +0.000
      +0.000     -0.000     +0.000
      +0.000     -0.000     -0.000
      +0.001     -0.002     -0.002
      +0.001     -0.002     +0.002
      +0.561     -0.791     +0.000
      +0.000     -0.000     +0.000
