[Molden Format]
[FR-COORD] # Coordinates in bohr
  C    -2.226182    +0.040265    -0.430576 
  C    +0.360764    -0.974708    +0.432979 
  O    +2.403774    +0.746209    -0.029300 
  H    -2.656278    +2.148331    +0.731506 
  H    -3.771876    -1.205783    +0.086542 
  H    -2.288851    +0.492177    -2.432604 
  H    +0.322107    -1.304140    +2.473237 
  H    +0.710079    -2.807908    -0.478605 
  H    +2.390025    +0.977060    -1.888222 
  H    -2.970597    +3.656827    +1.565051 
[FREQ] # Frequencies in cm^-1
 -2098.9691
  127.3022
  322.7807
  361.4144
  458.2605
  614.2991
  771.3806
  863.9065
  995.0603
 1044.4745
 1104.0574
 1125.5378
 1172.0882
 1183.6316
 1303.0187
 1384.8833
 1505.4177
 1677.3055
 1740.7959
 2587.5884
 2632.0055
 2732.1246
 2795.2912
 4224.4460
[FR-NORM-COORD] # Displacements in bohr
vibration  1
      -0.057     +0.253     +0.136
      -0.004     -0.012     -0.008
      -0.002     -0.000     +0.001
      +0.155     -0.746     -0.412
      +0.034     -0.028     -0.035
      +0.010     -0.058     +0.004
      +0.002     -0.001     -0.002
      +0.001     +0.002     -0.001
      -0.001     -0.001     +0.000
      -0.070     +0.342     +0.189
vibration  2
      +0.033     +0.076     -0.065
      -0.028     +0.128     +0.185
      +0.103     -0.143     -0.255
      -0.246     -0.164     +0.228
      +0.040     -0.136     -0.348
      +0.180     +0.299     +0.028
      -0.025     +0.246     +0.107
      -0.059     -0.045     +0.252
      +0.050     -0.189     -0.083
      -0.321     -0.228     +0.310
vibration  3
      +0.099     -0.094     -0.135
      -0.033     -0.121     +0.107
      -0.388     +0.222     -0.075
      +0.352     -0.074     +0.101
      -0.066     +0.054     -0.159
      +0.165     +0.080     -0.032
      -0.050     +0.079     +0.064
      +0.095     -0.084     +0.159
      +0.002     -0.149     -0.045
      +0.613     -0.072     +0.253
vibration  4
      -0.115     -0.010     +0.018
      -0.000     +0.067     -0.146
      +0.018     +0.138     +0.111
      -0.024     -0.011     +0.026
      +0.013     -0.026     +0.140
      -0.193     -0.037     +0.007
      -0.032     -0.025     -0.069
      +0.027     +0.055     -0.094
      +0.638     -0.659     -0.063
      -0.015     -0.025     +0.051
vibration  5
      -0.223     -0.099     -0.225
      -0.083     +0.274     -0.114
      +0.360     -0.135     +0.119
      +0.041     -0.095     +0.038
      +0.042     -0.097     +0.180
      -0.340     -0.184     -0.117
      -0.179     +0.272     -0.025
      -0.016     +0.030     +0.127
      -0.022     +0.227     +0.062
      +0.281     -0.190     +0.345
vibration  6
      +0.261     +0.172     -0.155
      +0.029     -0.141     +0.016
      -0.176     +0.037     -0.018
      +0.102     +0.078     -0.080
      -0.023     +0.398     +0.311
      +0.031     -0.333     -0.154
      -0.035     -0.033     +0.009
      +0.028     -0.067     +0.026
      -0.049     -0.023     -0.008
      -0.396     -0.291     +0.398
vibration  7
      +0.105     -0.008     -0.040
      +0.108     -0.231     -0.236
      -0.092     +0.016     +0.071
      +0.173     -0.097     +0.115
      +0.018     +0.102     +0.147
      -0.367     +0.417     +0.094
      -0.205     +0.274     -0.043
      +0.248     -0.264     +0.304
      +0.021     +0.086     +0.028
      -0.206     +0.065     -0.230
vibration  8
      -0.378     -0.163     -0.008
      +0.094     -0.077     +0.062
      +0.262     +0.068     -0.010
      +0.008     -0.050     -0.058
      -0.615     +0.417     -0.155
      +0.030     +0.055     +0.015
      +0.253     -0.020     +0.037
      +0.272     +0.001     +0.044
      +0.056     +0.040     -0.003
      -0.046     -0.056     +0.023
vibration  9
      -0.034     +0.035     +0.110
      +0.027     -0.106     -0.342
      -0.136     +0.005     +0.179
      -0.060     +0.077     -0.012
      -0.019     -0.038     -0.083
      +0.175     -0.153     +0.002
      +0.497     +0.397     -0.072
      -0.371     -0.269     +0.138
      +0.234     +0.177     +0.067
      +0.017     +0.026     +0.057
vibration  10
      -0.105     +0.319     -0.145
      +0.217     -0.216     +0.130
      -0.102     -0.042     +0.021
      -0.427     +0.192     -0.190
      +0.153     -0.125     -0.077
      -0.355     +0.025     -0.095
      +0.283     -0.149     +0.064
      +0.278     -0.114     +0.141
      -0.074     -0.050     +0.003
      +0.190     +0.101     +0.190
vibration  11
      +0.076     -0.127     -0.292
      +0.011     +0.130     +0.268
      -0.064     -0.024     +0.049
      +0.264     -0.132     -0.087
      +0.044     +0.035     +0.089
      -0.346     +0.314     -0.035
      +0.480     -0.101     +0.111
      -0.392     +0.091     -0.096
      -0.043     -0.042     +0.011
      -0.070     -0.168     -0.102
vibration  12
      +0.012     -0.017     -0.006
      +0.073     -0.261     +0.073
      +0.311     +0.420     -0.090
      -0.170     -0.027     -0.051
      -0.061     +0.062     -0.023
      -0.092     +0.016     +0.005
      -0.294     -0.276     +0.004
      -0.542     -0.303     +0.176
      +0.023     +0.036     -0.041
      +0.082     -0.004     +0.014
vibration  13
      +0.211     -0.048     -0.135
      +0.015     +0.060     -0.019
      -0.092     -0.075     +0.023
      -0.590     -0.384     +0.194
      -0.043     +0.337     +0.341
      +0.137     +0.080     -0.031
      +0.038     +0.086     -0.002
      -0.030     +0.058     -0.083
      -0.001     -0.006     +0.010
      +0.278     +0.014     -0.165
vibration  14
      +0.054     -0.228     +0.161
      -0.012     +0.045     -0.083
      -0.033     -0.043     +0.005
      -0.144     +0.194     -0.670
      +0.002     -0.011     +0.196
      +0.166     +0.415     +0.200
      -0.112     +0.085     -0.033
      +0.003     +0.028     -0.047
      +0.022     +0.018     +0.006
      +0.085     -0.220     +0.203
vibration  15
      -0.268     +0.048     -0.173
      -0.224     +0.101     -0.077
      +0.073     +0.042     -0.027
      +0.094     -0.024     +0.073
      +0.161     -0.131     +0.400
      +0.394     +0.157     -0.068
      +0.197     -0.400     -0.100
      +0.137     -0.132     +0.406
      +0.060     +0.052     -0.005
      -0.046     +0.016     -0.029
vibration  16
      +0.337     -0.089     +0.194
      -0.068     +0.429     -0.182
      -0.138     -0.137     +0.004
      -0.064     -0.037     -0.067
      -0.109     +0.154     -0.290
      -0.237     -0.129     +0.097
      +0.039     -0.384     -0.189
      +0.020     -0.023     +0.410
      +0.067     +0.045     +0.017
      +0.050     -0.079     -0.020
vibration  17
      +0.282     +0.007     +0.071
      -0.752     -0.262     +0.043
      +0.260     +0.188     -0.062
      -0.060     -0.020     -0.047
      +0.104     +0.026     -0.076
      -0.139     -0.029     +0.051
      +0.207     +0.084     +0.071
      +0.211     +0.027     -0.061
      +0.097     +0.076     -0.028
      +0.038     -0.069     -0.029
vibration  18
      -0.011     +0.005     -0.043
      +0.069     -0.036     +0.250
      -0.178     -0.118     -0.225
      +0.004     +0.007     +0.010
      +0.012     -0.009     +0.013
      -0.027     +0.019     -0.021
      -0.130     -0.096     +0.155
      +0.027     +0.072     -0.060
      +0.682     +0.551     +0.026
      -0.009     +0.037     +0.018
vibration  19
      +0.179     -0.400     -0.165
      -0.083     +0.053     -0.002
      +0.018     +0.005     +0.008
      -0.052     +0.188     +0.096
      -0.074     +0.030     +0.052
      -0.029     +0.092     -0.032
      +0.035     -0.008     -0.012
      -0.045     +0.036     +0.002
      -0.021     -0.019     -0.002
      -0.145     +0.720     +0.400
vibration  20
      -0.021     -0.030     -0.026
      -0.052     +0.346     -0.084
      -0.004     -0.008     +0.008
      +0.007     -0.006     +0.000
      +0.068     +0.063     -0.028
      +0.009     -0.027     +0.106
      -0.010     -0.090     +0.495
      +0.129     -0.682     -0.333
      -0.018     -0.020     +0.002
      -0.003     +0.012     +0.007
vibration  21
      +0.242     +0.095     +0.224
      -0.036     +0.061     -0.022
      -0.003     -0.001     +0.001
      -0.008     -0.000     -0.005
      -0.485     -0.381     +0.157
      -0.027     +0.149     -0.654
      -0.006     -0.011     +0.070
      +0.023     -0.102     -0.049
      -0.001     -0.003     -0.000
      +0.010     -0.039     -0.020
vibration  22
      -0.003     -0.001     -0.009
      -0.041     +0.123     +0.425
      -0.005     -0.004     -0.016
      +0.005     -0.004     -0.000
      +0.006     +0.002     -0.002
      -0.012     +0.006     -0.006
      +0.014     +0.110     -0.745
      +0.085     -0.419     -0.224
      +0.034     +0.024     +0.006
      -0.001     +0.002     +0.001
vibration  23
      +0.202     +0.226     -0.325
      -0.005     -0.004     +0.010
      -0.004     -0.000     -0.001
      -0.005     -0.005     +0.008
      -0.487     -0.398     +0.171
      +0.011     -0.137     +0.598
      +0.010     -0.003     -0.002
      +0.000     -0.001     -0.001
      -0.001     +0.002     +0.000
      +0.001     +0.001     -0.003
vibration  24
      -0.000     -0.001     +0.001
      -0.012     -0.010     -0.004
      +0.012     +0.040     -0.241
      -0.000     +0.000     +0.000
      -0.001     -0.000     +0.000
      +0.001     -0.000     +0.000
      +0.000     +0.000     +0.004
      -0.001     +0.001     +0.002
      -0.002     -0.127     +0.961
      +0.000     -0.000     -0.000
