[Molden Format]
[FR-COORD] # Coordinates in bohr
  C    +2.356566    -0.528469    -0.185665 
  C    -0.175485    +0.681553    +0.586790 
  O    -2.363411    -0.578289    -0.345923 
  H    +2.460849    -0.736601    -2.224291 
  H    +3.918090    +0.647847    +0.436026 
  H    +2.569284    -2.386632    +0.666849 
  H    -0.262524    +1.037172    +2.627486 
  H    -0.265443    +2.875910    -0.423957 
  H    -2.306273    -2.268271    +0.465250 
  H    -0.339910    +4.510948    -1.190117 
[FREQ] # Frequencies in cm^-1
 -2018.3130
  148.0457
  180.7449
  291.6935
  349.7951
  412.4264
  742.4049
  874.3889
  945.0288
 1035.6518
 1084.4310
 1100.3971
 1166.3487
 1203.2454
 1314.8843
 1319.9431
 1342.7907
 1455.1851
 1512.1493
 2565.7149
 2648.9188
 2775.9382
 2792.3301
 3055.9834
[FR-NORM-COORD] # Displacements in bohr
vibration  1
      +0.002     +0.014     -0.010
      +0.008     -0.237     +0.098
      +0.006     +0.018     -0.003
      -0.000     +0.000     -0.003
      -0.000     +0.003     +0.001
      +0.001     +0.001     -0.001
      -0.012     +0.065     -0.000
      -0.036     +0.793     -0.370
      -0.010     -0.003     -0.006
      +0.017     -0.365     +0.171
vibration  2
      +0.014     +0.027     -0.018
      +0.009     +0.048     -0.064
      +0.015     -0.091     +0.112
      +0.245     +0.472     -0.042
      +0.018     -0.252     +0.461
      -0.243     -0.204     -0.414
      +0.017     +0.086     -0.038
      -0.021     -0.020     -0.113
      -0.065     +0.061     +0.239
      -0.052     -0.068     -0.210
vibration  3
      +0.073     +0.047     -0.038
      +0.003     -0.094     -0.018
      +0.093     -0.091     -0.259
      -0.006     -0.033     -0.011
      -0.001     +0.096     -0.081
      +0.114     +0.051     +0.031
      -0.033     -0.106     +0.000
      +0.002     -0.001     +0.076
      -0.522     +0.311     +0.662
      -0.001     +0.052     +0.188
vibration  4
      +0.053     -0.206     +0.051
      +0.155     +0.083     -0.036
      +0.147     +0.188     -0.082
      +0.033     -0.160     +0.029
      +0.095     -0.178     +0.013
      -0.114     -0.076     +0.078
      +0.065     +0.024     -0.012
      -0.160     +0.044     +0.013
      +0.002     +0.071     -0.019
      -0.845     +0.044     +0.090
vibration  5
      +0.146     +0.067     +0.009
      +0.055     -0.257     +0.273
      -0.132     +0.327     -0.049
      +0.003     +0.117     -0.009
      -0.016     +0.146     -0.024
      +0.260     +0.020     -0.066
      +0.021     -0.218     +0.131
      +0.009     -0.163     +0.047
      -0.237     +0.048     -0.147
      -0.159     -0.405     -0.482
vibration  6
      -0.294     +0.023     -0.008
      -0.028     +0.190     +0.374
      +0.471     -0.123     -0.233
      -0.431     +0.052     -0.023
      +0.067     -0.151     -0.180
      -0.204     -0.044     -0.100
      -0.112     -0.001     +0.164
      -0.005     +0.053     +0.088
      +0.101     +0.027     +0.067
      +0.044     -0.111     -0.251
vibration  7
      +0.064     -0.119     +0.154
      +0.017     -0.093     +0.090
      -0.002     +0.027     -0.034
      -0.294     +0.213     +0.020
      +0.036     +0.033     -0.114
      +0.337     -0.146     -0.219
      -0.213     +0.575     -0.081
      +0.130     -0.238     -0.258
      -0.106     -0.029     -0.087
      -0.080     +0.033     +0.240
vibration  8
      -0.426     -0.118     -0.063
      +0.093     -0.122     -0.044
      +0.304     +0.101     +0.000
      +0.034     +0.048     -0.020
      -0.580     +0.331     +0.217
      +0.028     +0.018     +0.058
      +0.306     +0.056     -0.031
      +0.162     -0.120     -0.076
      +0.068     +0.050     +0.018
      -0.062     -0.084     +0.092
vibration  9
      -0.004     -0.288     +0.082
      -0.069     +0.148     -0.105
      -0.091     +0.013     +0.016
      -0.025     +0.076     +0.012
      -0.151     +0.097     -0.009
      +0.416     -0.162     -0.141
      -0.325     -0.273     +0.005
      +0.258     +0.277     +0.119
      +0.372     +0.111     +0.204
      -0.110     +0.178     -0.177
vibration  10
      -0.002     +0.259     +0.149
      +0.176     -0.143     -0.239
      -0.117     +0.010     +0.055
      -0.331     +0.140     +0.053
      +0.127     -0.011     -0.028
      -0.318     +0.098     +0.091
      -0.086     -0.286     -0.088
      +0.550     -0.130     -0.151
      +0.113     +0.027     +0.067
      -0.149     -0.152     +0.121
vibration  11
      -0.001     +0.037     -0.260
      -0.112     -0.063     +0.058
      +0.146     +0.190     +0.082
      +0.333     -0.173     -0.088
      -0.019     -0.013     -0.013
      -0.123     +0.068     +0.026
      -0.594     +0.116     -0.024
      +0.008     -0.227     +0.062
      +0.244     +0.123     +0.113
      +0.016     -0.365     +0.185
vibration  12
      -0.010     +0.040     -0.149
      -0.038     +0.100     +0.208
      -0.213     -0.227     -0.146
      +0.240     -0.101     -0.047
      +0.010     -0.027     -0.011
      -0.037     +0.054     +0.020
      +0.149     +0.377     +0.046
      +0.598     +0.156     +0.358
      -0.085     -0.082     -0.026
      -0.160     -0.077     -0.070
vibration  13
      -0.036     +0.008     -0.159
      -0.051     +0.031     +0.236
      +0.178     -0.046     +0.151
      +0.216     -0.090     -0.055
      -0.046     +0.009     -0.005
      -0.052     +0.042     +0.018
      -0.260     -0.220     +0.153
      +0.266     -0.005     -0.474
      -0.333     -0.132     -0.173
      -0.083     +0.430     -0.082
vibration  14
      +0.059     -0.034     -0.002
      +0.189     -0.171     -0.271
      +0.217     +0.001     +0.245
      -0.177     +0.046     -0.017
      -0.124     +0.144     +0.059
      -0.166     -0.017     +0.037
      -0.359     +0.136     -0.188
      -0.039     +0.236     +0.440
      -0.356     -0.131     -0.179
      +0.006     +0.085     -0.173
vibration  15
      +0.070     +0.164     -0.258
      +0.010     -0.022     +0.032
      -0.024     +0.003     -0.013
      -0.400     -0.333     -0.101
      -0.015     -0.266     +0.650
      +0.292     +0.177     +0.044
      -0.045     +0.026     +0.006
      +0.018     -0.005     -0.014
      +0.027     +0.010     +0.014
      -0.004     +0.038     -0.015
vibration  16
      +0.144     +0.201     +0.173
      -0.033     -0.006     +0.012
      -0.009     +0.009     -0.009
      -0.047     -0.565     +0.140
      -0.080     +0.312     +0.031
      -0.203     -0.250     -0.595
      +0.048     -0.012     +0.012
      +0.018     -0.006     -0.020
      +0.022     +0.009     +0.008
      -0.004     +0.010     -0.001
vibration  17
      -0.404     +0.212     +0.180
      -0.210     +0.020     -0.277
      +0.266     +0.050     +0.170
      +0.179     -0.121     +0.134
      +0.199     -0.325     -0.105
      +0.380     +0.039     -0.194
      +0.083     -0.101     -0.116
      +0.118     +0.012     +0.094
      -0.189     -0.051     -0.104
      -0.019     -0.159     +0.049
vibration  18
      +0.172     -0.185     -0.041
      +0.006     +0.662     -0.090
      +0.001     -0.141     +0.059
      -0.101     +0.025     -0.046
      -0.108     +0.119     +0.085
      +0.042     -0.085     +0.014
      -0.034     -0.193     +0.052
      +0.023     -0.051     -0.046
      -0.276     -0.136     -0.132
      +0.018     -0.447     +0.224
vibration  19
      -0.366     +0.127     +0.054
      +0.757     +0.112     +0.082
      -0.281     -0.134     -0.101
      +0.147     -0.083     +0.068
      -0.065     -0.080     -0.035
      +0.112     +0.050     -0.100
      -0.215     -0.016     +0.020
      -0.156     -0.013     -0.030
      -0.021     -0.053     +0.013
      +0.038     -0.014     +0.015
vibration  20
      +0.239     -0.131     -0.062
      -0.026     +0.006     -0.020
      -0.001     +0.000     +0.001
      -0.035     +0.056     +0.530
      -0.410     -0.302     -0.158
      -0.067     +0.532     -0.241
      -0.005     +0.015     +0.068
      -0.001     +0.005     -0.000
      +0.001     +0.002     -0.001
      -0.000     -0.004     +0.002
vibration  21
      -0.031     +0.019     +0.019
      +0.024     -0.083     -0.397
      +0.008     +0.001     +0.010
      -0.009     +0.002     -0.034
      +0.035     +0.017     +0.010
      +0.006     -0.031     +0.014
      -0.038     +0.157     +0.895
      +0.001     +0.008     +0.011
      -0.001     +0.017     -0.006
      +0.001     -0.015     +0.005
vibration  22
      +0.112     +0.353     -0.233
      -0.002     -0.006     +0.003
      -0.003     +0.001     -0.000
      -0.021     +0.029     +0.377
      -0.308     -0.239     -0.117
      +0.067     -0.638     +0.296
      -0.006     +0.004     +0.006
      +0.006     -0.007     +0.000
      -0.000     +0.000     +0.000
      -0.000     +0.002     -0.001
vibration  23
      -0.190     -0.175     -0.357
      +0.004     +0.004     +0.007
      +0.004     -0.001     -0.000
      -0.025     +0.067     +0.639
      +0.473     +0.360     +0.197
      +0.006     -0.010     +0.016
      -0.010     +0.005     +0.003
      +0.000     -0.000     +0.000
      -0.000     -0.001     -0.001
      +0.000     +0.000     +0.000
vibration  24
      +0.000     -0.001     +0.000
      -0.022     -0.008     -0.016
      +0.011     +0.311     -0.135
      -0.001     +0.000     +0.001
      -0.000     -0.001     -0.000
      +0.001     +0.000     -0.000
      -0.001     +0.000     +0.012
      -0.001     -0.006     +0.002
      +0.023     -0.849     +0.404
      -0.000     +0.001     -0.001
