[Molden Format]
[FR-COORD] # Coordinates in bohr
  C    +2.466122    -0.388793    -0.136149 
  C    -0.087775    +0.807689    +0.551799 
  O    -2.097521    -0.746722    -0.316334 
  H    +4.000615    +0.848894    +0.432242 
  H    +2.693404    -2.195836    +0.812887 
  H    +2.583796    -0.699871    -2.160745 
  H    -0.213789    +1.224793    +2.579045 
  H    -0.188662    +2.945110    -0.515240 
  H    -3.648869    +0.126348    +0.261571 
  H    -0.255908    +4.613846    -1.338377 
[FREQ] # Frequencies in cm^-1
 -2760.7438
  198.6766
  368.4893
  393.4683
  434.2584
  474.7431
 1037.6389
 1079.2238
 1221.3377
 1336.2972
 1365.6912
 1514.2717
 1567.2211
 1660.0179
 1701.7194
 1711.8330
 1774.8639
 1817.2561
 1828.1380
 3569.1173
 3591.6085
 3748.5846
 3759.0291
 4234.8713
[FR-NORM-COORD] # Displacements in bohr
vibration  1
      -0.002     +0.014     -0.009
      -0.003     -0.178     +0.068
      +0.014     +0.027     +0.001
      -0.000     +0.002     +0.000
      -0.002     +0.000     +0.002
      +0.002     -0.001     -0.002
      -0.019     +0.069     -0.012
      -0.030     +0.784     -0.391
      -0.003     -0.005     +0.002
      +0.014     -0.388     +0.192
vibration  2
      +0.001     +0.013     -0.007
      +0.004     +0.073     -0.101
      +0.002     -0.078     +0.178
      +0.017     -0.245     +0.493
      -0.261     -0.239     -0.402
      +0.245     +0.474     -0.060
      +0.012     +0.086     -0.042
      -0.011     -0.017     -0.109
      +0.001     +0.020     -0.014
      -0.028     -0.067     -0.202
vibration  3
      +0.010     -0.040     -0.053
      +0.057     -0.027     +0.093
      +0.052     -0.041     +0.147
      +0.022     -0.019     -0.051
      +0.013     -0.010     -0.014
      -0.043     -0.021     -0.017
      +0.025     -0.008     +0.031
      -0.080     -0.007     +0.036
      -0.009     +0.479     -0.758
      -0.367     -0.019     +0.052
vibration  4
      -0.037     -0.227     +0.076
      +0.104     +0.155     -0.051
      +0.183     +0.158     -0.133
      +0.066     -0.162     +0.023
      -0.151     -0.063     +0.064
      -0.005     -0.125     +0.032
      +0.028     +0.034     -0.013
      -0.168     +0.052     +0.001
      +0.044     -0.169     +0.274
      -0.777     +0.052     +0.058
vibration  5
      -0.377     -0.087     -0.058
      -0.094     +0.366     -0.002
      +0.460     -0.263     +0.055
      +0.022     -0.166     -0.073
      -0.262     -0.042     -0.014
      -0.207     -0.063     -0.017
      -0.047     +0.133     -0.007
      +0.024     +0.134     +0.017
      +0.005     -0.150     -0.157
      +0.261     +0.238     +0.240
vibration  6
      +0.201     -0.026     +0.068
      +0.017     +0.002     -0.494
      -0.258     -0.122     +0.199
      -0.012     +0.033     +0.127
      +0.001     +0.032     +0.111
      +0.260     -0.078     +0.042
      +0.043     +0.076     -0.155
      -0.006     +0.068     -0.027
      -0.012     +0.085     +0.018
      +0.001     +0.353     +0.560
vibration  7
      +0.222     -0.120     +0.147
      -0.033     +0.043     +0.127
      -0.123     -0.038     -0.081
      +0.159     -0.036     -0.201
      +0.315     -0.164     -0.259
      -0.335     +0.212     -0.023
      -0.294     +0.489     -0.081
      +0.098     -0.141     -0.226
      -0.037     -0.038     +0.012
      -0.065     +0.096     +0.156
vibration  8
      -0.459     -0.038     +0.079
      +0.116     -0.321     -0.165
      +0.305     +0.197     +0.066
      -0.415     +0.292     +0.102
      +0.185     +0.008     -0.027
      -0.047     +0.166     +0.005
      +0.060     +0.152     -0.105
      +0.135     -0.203     -0.145
      +0.118     +0.079     +0.057
      -0.068     -0.039     +0.145
vibration  9
      -0.123     +0.399     +0.189
      +0.351     -0.221     -0.132
      -0.127     -0.118     -0.073
      +0.258     -0.188     -0.095
      -0.405     +0.054     +0.014
      -0.374     +0.015     +0.056
      +0.024     -0.031     -0.061
      +0.046     -0.125     -0.047
      +0.167     +0.230     +0.139
      +0.004     -0.101     +0.087
vibration  10
      +0.002     -0.106     +0.240
      -0.038     +0.067     -0.355
      +0.083     -0.002     +0.150
      +0.004     +0.053     -0.124
      +0.218     -0.117     -0.147
      -0.263     +0.180     +0.023
      -0.303     -0.515     -0.011
      +0.073     +0.295     +0.184
      +0.103     +0.119     +0.068
      -0.037     +0.128     -0.191
vibration  11
      +0.165     +0.068     -0.118
      -0.412     -0.269     -0.087
      +0.324     +0.293     +0.169
      +0.161     -0.127     -0.015
      -0.152     +0.022     +0.021
      +0.079     -0.136     -0.013
      -0.461     -0.007     -0.062
      -0.275     -0.204     -0.051
      +0.118     +0.096     +0.055
      +0.089     -0.118     +0.102
vibration  12
      -0.042     +0.052     -0.222
      +0.105     +0.039     +0.119
      -0.055     -0.097     +0.027
      -0.063     +0.008     +0.086
      -0.126     +0.097     +0.113
      +0.193     -0.102     -0.038
      -0.538     +0.019     -0.002
      +0.690     +0.034     +0.058
      +0.027     +0.034     +0.039
      -0.182     -0.021     -0.007
vibration  13
      -0.094     -0.125     -0.113
      +0.233     +0.114     +0.193
      -0.069     -0.226     -0.152
      -0.152     +0.066     +0.074
      +0.077     +0.029     +0.069
      +0.132     +0.011     -0.033
      -0.276     +0.148     +0.017
      -0.444     +0.102     +0.039
      +0.344     +0.429     +0.250
      +0.112     +0.152     -0.090
vibration  14
      -0.000     +0.052     -0.030
      -0.080     -0.121     +0.210
      +0.027     +0.014     -0.010
      +0.033     -0.046     +0.036
      -0.017     +0.025     +0.016
      +0.007     -0.043     +0.002
      +0.069     -0.319     +0.134
      +0.077     -0.044     -0.676
      +0.042     +0.050     +0.022
      -0.040     +0.559     -0.117
vibration  15
      +0.318     -0.134     -0.106
      +0.198     -0.097     +0.012
      -0.043     +0.085     +0.056
      -0.285     +0.320     +0.200
      -0.406     +0.023     +0.202
      -0.411     +0.133     -0.085
      -0.183     +0.019     -0.020
      -0.169     +0.046     +0.004
      -0.188     -0.214     -0.125
      +0.034     +0.133     -0.072
vibration  16
      +0.011     +0.113     +0.009
      -0.162     -0.435     +0.012
      +0.068     +0.037     -0.001
      +0.057     -0.055     +0.042
      -0.028     -0.019     -0.084
      -0.033     -0.148     +0.028
      +0.149     +0.397     -0.092
      +0.106     +0.333     +0.347
      +0.044     +0.032     +0.016
      -0.045     +0.428     -0.325
vibration  17
      -0.295     +0.128     +0.023
      +0.466     -0.157     -0.028
      -0.075     +0.128     +0.092
      +0.130     -0.215     -0.035
      +0.221     +0.056     -0.035
      +0.200     -0.055     +0.040
      -0.325     -0.019     -0.047
      -0.269     +0.028     -0.002
      -0.304     -0.345     -0.200
      +0.057     +0.139     -0.072
vibration  18
      +0.011     +0.075     -0.177
      -0.038     +0.065     -0.049
      +0.004     -0.012     -0.002
      +0.021     -0.314     +0.635
      +0.418     +0.166     +0.135
      -0.427     -0.195     -0.039
      +0.031     -0.028     -0.006
      +0.013     -0.016     +0.012
      +0.020     +0.022     +0.015
      +0.000     -0.070     +0.033
vibration  19
      +0.058     +0.159     +0.072
      +0.090     +0.094     +0.021
      -0.025     -0.016     -0.005
      -0.192     +0.242     +0.137
      -0.065     -0.277     -0.567
      -0.047     -0.632     +0.118
      -0.063     -0.051     +0.019
      -0.042     -0.034     -0.043
      -0.013     -0.009     -0.005
      +0.012     -0.048     +0.036
vibration  20
      -0.157     +0.081     +0.034
      +0.007     +0.000     +0.016
      +0.001     -0.000     +0.000
      +0.415     +0.339     +0.155
      +0.062     -0.522     +0.276
      +0.029     -0.081     -0.540
      +0.006     -0.015     -0.064
      +0.001     -0.003     +0.001
      -0.001     +0.000     -0.000
      +0.000     +0.002     -0.001
vibration  21
      +0.014     -0.011     -0.015
      -0.023     +0.062     +0.277
      +0.002     -0.004     -0.001
      -0.022     -0.014     -0.008
      -0.004     +0.025     -0.015
      +0.002     +0.006     +0.059
      +0.058     -0.196     -0.933
      -0.002     -0.001     -0.001
      -0.010     +0.008     +0.001
      -0.000     +0.009     -0.004
vibration  22
      -0.077     -0.250     +0.176
      +0.000     -0.000     +0.003
      +0.001     -0.000     -0.000
      +0.321     +0.258     +0.123
      -0.081     +0.663     -0.350
      +0.019     -0.061     -0.378
      +0.003     -0.002     -0.013
      -0.003     +0.004     -0.001
      +0.001     +0.000     +0.000
      -0.000     -0.000     +0.000
vibration  23
      +0.131     +0.138     +0.252
      -0.001     +0.002     +0.006
      -0.001     +0.000     -0.000
      -0.487     -0.396     -0.180
      -0.000     +0.022     -0.007
      +0.038     -0.101     -0.679
      +0.005     -0.007     -0.024
      -0.001     -0.000     -0.001
      -0.003     +0.000     +0.000
      -0.000     +0.000     -0.000
vibration  24
      -0.001     +0.001     +0.000
      -0.007     -0.013     -0.010
      +0.212     -0.101     -0.068
      +0.002     +0.000     +0.000
      -0.001     +0.001     -0.000
      -0.001     +0.000     +0.001
      -0.004     +0.001     +0.009
      -0.002     -0.002     +0.001
      -0.811     +0.442     +0.295
      -0.000     +0.001     -0.001
