[Molden Format]
[FR-COORD] # Coordinates in bohr
  C    -2.471897    -0.455608    +0.192864 
  C    +0.052083    +0.816618    -0.510428 
  O    +2.244947    -0.614199    +0.074438 
  H    -4.038706    +0.763902    -0.322681 
  H    -2.681551    -2.243666    -0.795802 
  H    -2.569385    -0.815561    +2.212221 
  H    +0.124673    +1.293008    -2.520130 
  H    +0.123500    +2.921006    +0.624123 
  H    +2.066471    -1.026241    +1.892033 
  H    +0.158380    +4.556858    +1.510038 
[FREQ] # Frequencies in cm^-1
 -2760.2476
  212.7981
  370.9953
  397.1639
  457.5451
  475.0257
 1030.4995
 1071.5411
 1245.7328
 1272.5108
 1357.2394
 1511.7000
 1626.1458
 1656.3298
 1696.8310
 1721.0242
 1742.9675
 1823.1632
 1830.1907
 3563.1672
 3643.6369
 3742.4063
 3753.2518
 4230.5749
[FR-NORM-COORD] # Displacements in bohr
vibration  1
      -0.003     -0.015     -0.011
      -0.008     +0.174     +0.079
      +0.016     -0.025     -0.004
      -0.001     -0.002     +0.000
      -0.003     -0.001     +0.003
      +0.002     +0.002     -0.002
      -0.013     -0.064     -0.010
      -0.019     -0.773     -0.416
      -0.001     +0.008     +0.001
      +0.008     +0.381     +0.205
vibration  2
      -0.008     -0.009     -0.006
      +0.001     -0.075     -0.093
      +0.015     +0.041     +0.150
      +0.021     +0.239     +0.497
      -0.274     +0.246     -0.393
      +0.241     -0.470     -0.073
      +0.008     -0.084     -0.041
      -0.013     +0.019     -0.105
      +0.011     +0.106     +0.060
      -0.031     +0.073     -0.202
vibration  3
      -0.107     -0.044     -0.078
      -0.059     -0.049     -0.006
      -0.040     -0.039     -0.019
      -0.021     -0.012     -0.052
      -0.011     -0.010     -0.032
      -0.068     -0.021     -0.027
      -0.023     -0.013     -0.002
      +0.079     -0.044     +0.053
      +0.410     +0.728     +0.205
      +0.368     -0.154     +0.222
vibration  4
      -0.081     +0.221     +0.039
      +0.103     -0.172     -0.037
      +0.192     -0.115     -0.084
      +0.064     +0.168     -0.011
      -0.158     +0.057     +0.056
      -0.045     +0.129     +0.021
      +0.028     -0.042     -0.008
      -0.164     -0.076     +0.034
      +0.200     +0.194     +0.045
      -0.767     -0.143     +0.193
vibration  5
      -0.296     +0.061     +0.014
      -0.085     -0.351     -0.156
      +0.373     +0.390     +0.085
      +0.015     +0.144     -0.010
      -0.260     +0.015     +0.045
      -0.107     +0.083     +0.015
      -0.031     -0.143     -0.055
      +0.023     -0.139     -0.023
      -0.107     -0.247     -0.076
      +0.295     -0.267     +0.253
vibration  6
      +0.297     +0.013     +0.080
      +0.018     +0.115     -0.478
      -0.300     -0.019     +0.191
      -0.018     -0.075     +0.158
      +0.070     -0.036     +0.100
      +0.309     +0.052     +0.043
      +0.047     -0.028     -0.151
      -0.008     -0.031     -0.031
      -0.258     +0.044     +0.040
      -0.033     -0.288     +0.455
vibration  7
      +0.253     +0.124     +0.122
      -0.046     -0.079     +0.146
      -0.167     +0.085     -0.066
      +0.182     +0.068     -0.205
      +0.287     +0.170     -0.248
      -0.303     -0.189     -0.028
      -0.253     -0.518     -0.084
      +0.063     +0.139     -0.224
      +0.020     -0.056     -0.032
      -0.042     -0.105     +0.160
vibration  8
      -0.445     +0.035     +0.108
      +0.114     +0.322     -0.146
      +0.323     -0.192     +0.049
      -0.394     -0.299     +0.082
      +0.211     +0.012     -0.053
      -0.078     -0.189     +0.003
      +0.033     -0.178     -0.115
      +0.135     +0.216     -0.152
      +0.022     -0.051     +0.013
      -0.072     +0.026     +0.158
vibration  9
      +0.053     +0.378     -0.232
      -0.272     -0.274     +0.209
      -0.005     +0.062     -0.003
      -0.291     -0.202     +0.139
      +0.337     +0.024     +0.028
      +0.433     +0.063     -0.060
      +0.104     -0.150     +0.059
      -0.076     -0.104     +0.002
      +0.251     -0.132     -0.010
      +0.016     -0.106     -0.066
vibration  10
      +0.082     +0.206     +0.129
      -0.248     -0.098     -0.205
      +0.276     -0.131     +0.109
      -0.026     -0.062     -0.092
      +0.293     +0.128     -0.139
      -0.114     -0.129     -0.006
      -0.430     +0.399     +0.037
      +0.030     -0.237     +0.153
      -0.256     +0.140     +0.045
      -0.026     -0.092     -0.169
vibration  11
      +0.148     -0.067     -0.199
      -0.409     +0.252     +0.048
      +0.324     -0.277     +0.094
      +0.127     +0.124     +0.032
      -0.186     -0.059     +0.066
      +0.167     +0.183     -0.020
      -0.363     -0.139     -0.046
      -0.288     +0.266     -0.080
      +0.061     -0.056     +0.040
      +0.092     +0.143     +0.152
vibration  12
      -0.047     -0.041     -0.240
      +0.146     -0.060     +0.186
      -0.038     +0.080     -0.021
      -0.076     -0.018     +0.103
      -0.125     -0.109     +0.123
      +0.202     +0.111     -0.040
      -0.478     -0.123     +0.016
      +0.653     +0.008     +0.052
      -0.198     +0.114     -0.003
      -0.170     +0.047     +0.018
vibration  13
      -0.043     +0.106     -0.047
      +0.346     -0.090     +0.040
      -0.015     +0.021     -0.110
      -0.134     -0.093     +0.055
      +0.012     -0.015     +0.065
      +0.003     -0.057     -0.027
      -0.176     -0.335     -0.069
      -0.492     -0.076     +0.431
      -0.329     +0.190     -0.018
      +0.127     +0.247     +0.026
vibration  14
      -0.007     -0.050     +0.096
      -0.313     -0.045     -0.235
      +0.052     -0.004     +0.035
      +0.127     +0.090     -0.109
      +0.100     +0.059     -0.124
      +0.059     +0.043     +0.039
      +0.258     -0.214     -0.116
      +0.326     -0.047     +0.524
      +0.099     -0.051     +0.008
      -0.071     +0.465     +0.120
vibration  15
      +0.134     -0.012     -0.026
      +0.021     +0.375     -0.099
      -0.058     -0.004     +0.110
      -0.086     -0.125     +0.072
      -0.223     +0.007     +0.029
      -0.194     +0.016     -0.016
      -0.161     -0.245     -0.126
      +0.029     -0.335     +0.327
      +0.345     -0.205     +0.012
      -0.017     -0.350     -0.304
vibration  16
      +0.290     +0.192     -0.036
      +0.028     -0.263     -0.150
      -0.104     +0.045     +0.083
      -0.222     -0.318     +0.038
      -0.322     +0.010     +0.152
      -0.288     -0.202     -0.075
      -0.144     +0.216     +0.016
      +0.025     +0.153     -0.038
      +0.267     -0.146     +0.005
      +0.004     +0.353     +0.215
vibration  17
      -0.293     -0.082     +0.057
      +0.332     -0.057     -0.186
      -0.183     +0.060     +0.139
      +0.135     +0.197     -0.133
      +0.252     -0.017     -0.070
      +0.283     +0.015     +0.041
      -0.409     +0.163     -0.039
      -0.131     +0.013     +0.028
      +0.425     -0.247     +0.006
      +0.037     +0.119     +0.057
vibration  18
      -0.016     +0.063     +0.182
      +0.008     +0.050     +0.069
      +0.014     -0.008     -0.019
      -0.020     -0.293     -0.640
      -0.405     +0.173     -0.152
      +0.450     -0.162     +0.037
      +0.005     -0.036     +0.013
      -0.004     -0.009     -0.019
      -0.054     +0.030     -0.001
      -0.001     -0.064     -0.030
vibration  19
      +0.061     -0.166     +0.065
      +0.086     -0.088     +0.012
      -0.026     +0.017     -0.002
      -0.178     -0.236     +0.150
      -0.067     +0.286     -0.559
      -0.071     +0.635     +0.132
      -0.059     +0.045     +0.020
      -0.040     +0.031     -0.035
      -0.000     +0.005     -0.002
      +0.011     +0.048     +0.036
vibration  20
      -0.151     -0.087     +0.047
      +0.007     +0.003     +0.001
      +0.001     +0.000     +0.000
      +0.407     -0.321     +0.136
      +0.056     +0.507     +0.284
      +0.025     +0.100     -0.573
      +0.002     +0.004     -0.012
      +0.001     +0.003     +0.001
      -0.001     -0.000     -0.001
      +0.000     -0.001     -0.001
vibration  21
      +0.003     +0.006     -0.017
      -0.012     -0.072     +0.278
      +0.001     +0.002     -0.006
      +0.007     -0.009     +0.002
      +0.001     +0.011     +0.005
      +0.004     -0.004     +0.040
      +0.030     +0.225     -0.929
      -0.002     +0.001     -0.002
      -0.012     +0.004     +0.011
      +0.000     -0.009     -0.004
vibration  22
      -0.008     -0.138     -0.283
      +0.000     +0.002     -0.010
      -0.000     -0.000     +0.001
      -0.008     +0.004     -0.007
      +0.066     +0.588     +0.324
      -0.029     -0.118     +0.655
      -0.005     -0.010     +0.036
      +0.003     +0.004     +0.002
      +0.002     -0.000     -0.001
      +0.000     +0.000     -0.000
vibration  23
      +0.162     -0.245     +0.114
      -0.001     -0.002     +0.006
      -0.002     +0.000     -0.000
      -0.607     +0.475     -0.201
      +0.037     +0.308     +0.176
      +0.018     +0.061     -0.366
      +0.002     +0.007     -0.020
      +0.001     +0.002     -0.000
      -0.001     -0.001     +0.001
      +0.000     -0.000     -0.000
vibration  24
      -0.000     +0.001     -0.001
      -0.014     +0.006     +0.005
      -0.009     -0.062     +0.236
      -0.002     +0.000     -0.001
      -0.000     -0.001     -0.000
      +0.001     +0.001     -0.000
      +0.001     +0.002     -0.011
      -0.001     +0.003     -0.000
      +0.082     +0.220     -0.941
      -0.000     -0.001     -0.001
