[Molden Format]
[FR-COORD] # Coordinates in bohr
  C    -2.233932    -0.788697    -0.032423 
  C    +0.038768    +1.023536    +0.082554 
  O    +2.423931    -0.255142    -0.143904 
  H    -4.269551    +0.551763    +0.080278 
  H    -2.345453    -1.822776    -1.800956 
  H    -2.330924    -2.066482    +1.571829 
  H    -0.059776    +2.353505    -1.496154 
  H    -0.050108    +2.129542    +1.834059 
  H    +2.462424    -1.405638    +1.334451 
  H    -5.738693    +1.513206    +0.163445 
[FREQ] # Frequencies in cm^-1
 -2764.5124
  143.3672
  333.1331
  373.1075
  519.9418
  713.8869
  954.7534
 1135.7398
 1246.4387
 1266.8749
 1334.2420
 1508.0549
 1569.3004
 1594.0110
 1627.3398
 1731.1119
 1781.9418
 1785.0763
 1816.7925
 3561.5117
 3615.6193
 3684.3652
 3759.8764
 4222.6382
[FR-NORM-COORD] # Displacements in bohr
vibration  1
      -0.183     +0.111     +0.010
      +0.014     -0.013     -0.001
      +0.000     +0.003     +0.000
      +0.757     -0.497     -0.042
      +0.060     -0.023     +0.022
      +0.060     -0.020     -0.025
      +0.000     -0.001     +0.001
      +0.000     -0.001     -0.001
      -0.002     +0.000     -0.001
      -0.294     +0.192     +0.016
vibration  2
      +0.005     -0.011     +0.181
      +0.005     -0.020     +0.304
      -0.020     +0.045     -0.298
      -0.002     +0.022     -0.319
      +0.182     -0.174     +0.140
      -0.175     +0.155     +0.167
      -0.051     +0.083     +0.166
      +0.057     -0.105     +0.153
      +0.041     -0.097     -0.160
      -0.006     +0.043     -0.634
vibration  3
      -0.180     -0.213     -0.031
      -0.101     -0.288     +0.013
      +0.168     +0.241     -0.020
      +0.125     +0.191     +0.004
      -0.132     -0.031     -0.021
      -0.143     -0.054     -0.010
      -0.083     -0.071     +0.017
      -0.075     -0.093     +0.007
      +0.229     +0.229     +0.121
      +0.379     +0.597     +0.022
vibration  4
      -0.002     +0.097     -0.054
      +0.047     +0.040     +0.142
      -0.120     -0.236     -0.179
      -0.050     -0.043     -0.025
      +0.045     +0.083     -0.051
      -0.009     -0.033     -0.066
      +0.014     +0.048     +0.072
      +0.063     -0.030     +0.066
      +0.402     +0.619     +0.471
      -0.140     -0.178     -0.060
vibration  5
      +0.439     -0.191     -0.023
      -0.098     +0.299     +0.044
      -0.488     -0.176     -0.034
      +0.147     -0.042     -0.005
      +0.242     -0.044     -0.020
      +0.225     -0.067     -0.011
      -0.040     +0.079     +0.007
      -0.029     +0.077     +0.019
      -0.148     +0.045     +0.059
      +0.370     +0.282     +0.015
vibration  6
      +0.001     -0.019     +0.265
      -0.000     -0.001     -0.005
      +0.008     +0.010     +0.002
      +0.001     -0.015     +0.216
      -0.245     +0.427     -0.160
      +0.238     -0.401     -0.224
      -0.064     -0.116     -0.094
      +0.058     +0.127     -0.078
      -0.018     -0.033     -0.027
      -0.005     +0.039     -0.539
vibration  7
      +0.006     +0.014     +0.030
      +0.004     -0.039     +0.273
      -0.037     +0.027     -0.076
      +0.000     +0.019     -0.178
      +0.397     +0.162     -0.110
      -0.386     -0.132     -0.125
      -0.100     -0.398     -0.242
      +0.093     +0.420     -0.188
      +0.109     -0.072     -0.084
      -0.001     -0.016     +0.180
vibration  8
      -0.445     -0.295     +0.007
      +0.088     +0.480     +0.020
      +0.300     -0.157     -0.028
      -0.306     -0.244     -0.033
      +0.142     -0.130     -0.002
      +0.051     -0.176     -0.045
      +0.055     +0.168     +0.020
      +0.153     +0.142     +0.016
      -0.054     -0.005     +0.032
      -0.005     +0.233     +0.030
vibration  9
      -0.061     +0.308     -0.059
      -0.220     -0.262     +0.085
      +0.038     +0.007     -0.004
      -0.304     -0.161     +0.045
      +0.348     -0.071     +0.052
      +0.574     +0.070     +0.005
      +0.140     -0.153     -0.046
      -0.149     +0.008     -0.038
      +0.250     -0.086     -0.074
      -0.040     +0.207     -0.016
vibration  10
      -0.090     -0.184     -0.181
      +0.330     +0.074     +0.259
      -0.305     +0.126     -0.037
      +0.029     -0.012     +0.096
      -0.368     -0.194     +0.046
      +0.071     +0.077     +0.063
      +0.497     -0.144     -0.096
      -0.099     +0.241     -0.062
      +0.251     -0.073     -0.112
      +0.006     -0.016     -0.057
vibration  11
      +0.120     +0.010     -0.117
      -0.407     +0.284     +0.216
      +0.380     -0.293     -0.089
      +0.152     +0.056     +0.064
      -0.260     -0.029     +0.009
      +0.001     +0.142     +0.068
      -0.173     -0.047     -0.042
      -0.442     +0.210     -0.032
      +0.153     -0.089     -0.016
      +0.048     -0.090     -0.038
vibration  12
      -0.013     +0.034     -0.311
      +0.084     -0.066     +0.236
      +0.002     +0.031     +0.017
      -0.026     -0.008     +0.124
      -0.205     -0.219     +0.049
      +0.243     +0.178     +0.055
      -0.540     -0.196     -0.036
      +0.485     +0.144     -0.010
      -0.183     +0.062     +0.054
      -0.027     +0.026     -0.046
vibration  13
      -0.190     -0.169     -0.023
      +0.036     +0.057     +0.012
      +0.016     -0.013     -0.015
      +0.291     +0.712     +0.136
      +0.320     -0.157     +0.021
      +0.253     -0.132     -0.041
      +0.005     +0.025     +0.009
      -0.054     +0.033     -0.008
      -0.032     +0.009     +0.007
      -0.315     -0.053     -0.026
vibration  14
      +0.018     +0.027     -0.135
      +0.009     -0.011     -0.032
      +0.004     +0.005     -0.011
      -0.028     -0.136     +0.811
      +0.301     -0.088     -0.001
      -0.363     +0.123     +0.028
      +0.037     +0.010     -0.002
      -0.049     -0.023     -0.002
      -0.034     +0.015     +0.009
      +0.027     +0.025     -0.222
vibration  15
      +0.042     +0.073     +0.032
      +0.491     -0.029     +0.062
      -0.056     +0.007     -0.083
      -0.183     -0.069     -0.038
      -0.022     -0.104     +0.080
      -0.021     -0.123     -0.099
      -0.336     -0.101     -0.021
      -0.626     -0.052     +0.008
      -0.242     +0.097     +0.054
      -0.185     +0.170     +0.023
vibration  16
      +0.055     +0.007     +0.002
      +0.137     +0.125     -0.226
      -0.189     -0.055     +0.229
      -0.032     +0.012     +0.027
      -0.014     -0.087     +0.050
      -0.077     -0.085     -0.073
      -0.413     +0.173     +0.060
      +0.049     -0.040     -0.016
      +0.677     -0.274     -0.185
      -0.095     +0.065     +0.000
vibration  17
      -0.413     -0.044     +0.001
      +0.272     -0.002     -0.024
      -0.051     +0.003     +0.022
      +0.145     -0.045     -0.005
      +0.192     +0.275     -0.182
      +0.197     +0.243     +0.217
      -0.208     +0.024     +0.032
      -0.179     +0.007     -0.024
      +0.052     -0.020     -0.019
      +0.489     -0.340     -0.029
vibration  18
      -0.127     +0.323     +0.023
      -0.031     -0.078     +0.008
      +0.020     +0.003     -0.014
      +0.109     -0.016     +0.002
      -0.020     -0.425     +0.309
      -0.028     -0.374     -0.365
      +0.021     +0.100     +0.102
      -0.003     +0.124     -0.088
      -0.041     +0.016     +0.011
      +0.427     -0.283     -0.025
vibration  19
      +0.070     -0.059     -0.006
      +0.018     -0.305     -0.002
      -0.002     +0.003     -0.019
      -0.047     -0.013     -0.003
      -0.008     +0.085     -0.061
      +0.002     +0.078     +0.074
      -0.015     +0.454     +0.458
      -0.045     +0.528     -0.388
      -0.066     +0.026     +0.017
      -0.118     +0.084     +0.008
vibration  20
      -0.006     -0.011     -0.003
      -0.012     +0.232     +0.079
      -0.002     +0.000     +0.002
      +0.002     +0.000     -0.000
      -0.003     +0.007     +0.017
      -0.002     +0.003     -0.008
      +0.029     -0.341     +0.411
      +0.036     -0.426     -0.686
      +0.006     -0.005     -0.003
      -0.000     -0.000     -0.000
vibration  21
      +0.029     +0.231     +0.001
      -0.009     -0.002     +0.004
      -0.000     -0.000     -0.000
      -0.001     -0.002     -0.000
      -0.041     -0.321     -0.568
      -0.040     -0.441     +0.567
      -0.001     -0.005     +0.002
      -0.001     -0.014     -0.017
      +0.001     -0.000     +0.001
      +0.013     -0.008     -0.001
vibration  22
      -0.000     -0.000     +0.026
      -0.006     +0.072     -0.307
      -0.001     -0.004     +0.006
      +0.000     +0.000     +0.001
      -0.000     -0.029     -0.051
      -0.003     +0.024     -0.033
      +0.039     -0.508     +0.608
      -0.020     +0.272     +0.436
      +0.009     +0.008     -0.015
      +0.000     -0.000     -0.000
vibration  23
      +0.003     -0.012     +0.321
      +0.000     -0.004     +0.022
      -0.000     +0.001     -0.001
      -0.000     -0.000     -0.001
      -0.038     -0.351     -0.604
      +0.030     +0.393     -0.496
      +0.001     +0.036     -0.042
      -0.003     -0.026     -0.038
      -0.001     -0.001     +0.002
      +0.001     -0.000     +0.000
vibration  24
      -0.000     +0.001     -0.000
      -0.014     +0.003     +0.010
      +0.020     -0.155     +0.188
      -0.001     +0.000     -0.000
      -0.000     -0.001     -0.001
      +0.001     +0.001     -0.000
      +0.000     +0.008     -0.011
      -0.001     -0.002     -0.008
      -0.031     +0.599     -0.762
      +0.000     -0.000     -0.000
