[Molden Format]
[FR-COORD] # Coordinates in bohr
  C    +2.376463    -0.084551    -0.353297 
  C    -0.239035    -1.026691    +0.474399 
  O    -2.094911    +0.808850    -0.265719 
  H    +2.847793    +2.003773    +0.823986 
  H    +2.454450    +0.379204    -2.350294 
  H    +3.882057    -1.375258    +0.173621 
  H    -0.617192    -2.867277    -0.410460 
  H    -0.249572    -1.323600    +2.527090 
  H    -3.712719    +0.080941    +0.334000 
  H    +3.192946    +3.496530    +1.677274 
[FREQ] # Frequencies in cm^-1
 -2766.9033
  145.6450
  335.1763
  370.2859
  484.5023
  720.8349
 1026.3891
 1081.3452
 1235.3120
 1320.4246
 1348.9765
 1462.8306
 1562.3247
 1570.8299
 1598.8763
 1739.6624
 1782.3772
 1797.2801
 1838.5666
 3528.4246
 3621.4684
 3639.6903
 3766.0672
 4228.6233
[FR-NORM-COORD] # Displacements in bohr
vibration  1
      -0.047     -0.184     -0.100
      +0.001     +0.014     +0.009
      -0.001     -0.000     -0.001
      +0.177     +0.774     +0.439
      +0.014     +0.069     +0.007
      +0.034     +0.040     +0.040
      +0.006     -0.002     -0.001
      +0.001     -0.001     +0.002
      +0.000     +0.000     +0.001
      -0.067     -0.296     -0.168
vibration  2
      +0.037     -0.094     +0.099
      -0.038     -0.168     -0.235
      +0.122     +0.194     +0.269
      -0.213     +0.146     -0.184
      +0.156     -0.253     -0.018
      +0.033     +0.112     +0.305
      -0.039     +0.027     -0.214
      -0.032     -0.205     -0.091
      +0.007     +0.015     -0.037
      -0.395     +0.289     -0.366
vibration  3
      +0.081     +0.021     +0.088
      -0.011     +0.090     -0.052
      -0.217     +0.014     +0.196
      +0.191     +0.026     -0.064
      +0.073     -0.058     +0.012
      -0.029     -0.039     +0.069
      +0.037     +0.053     -0.084
      -0.024     -0.055     -0.025
      -0.109     -0.407     -0.594
      +0.486     +0.041     -0.220
vibration  4
      +0.166     +0.042     +0.191
      -0.013     +0.065     -0.239
      -0.334     -0.135     -0.060
      +0.158     +0.037     -0.020
      +0.196     -0.065     +0.043
      -0.027     -0.026     +0.179
      +0.054     +0.041     -0.146
      -0.035     -0.069     -0.084
      +0.039     +0.195     +0.595
      +0.417     +0.054     -0.161
vibration  5
      -0.339     +0.216     +0.166
      -0.124     -0.338     +0.094
      +0.396     -0.011     -0.105
      +0.017     +0.076     -0.008
      -0.278     +0.183     +0.069
      +0.011     +0.107     -0.162
      +0.002     -0.051     -0.092
      -0.122     -0.195     +0.012
      +0.027     +0.182     +0.001
      +0.361     +0.162     -0.301
vibration  6
      +0.240     -0.186     +0.180
      +0.026     +0.098     -0.007
      -0.153     +0.024     -0.023
      +0.138     -0.127     +0.154
      -0.104     +0.399     +0.150
      +0.003     -0.323     -0.411
      +0.012     +0.046     -0.041
      -0.053     -0.017     -0.009
      -0.005     -0.046     +0.023
      -0.299     +0.274     -0.375
vibration  7
      +0.056     -0.021     +0.035
      +0.108     +0.193     +0.257
      -0.064     -0.014     -0.109
      +0.165     +0.104     -0.176
      -0.386     -0.363     -0.091
      +0.030     -0.052     -0.136
      +0.222     +0.231     -0.372
      -0.243     -0.373     +0.007
      +0.015     -0.021     +0.038
      -0.116     -0.062     +0.158
vibration  8
      -0.474     +0.013     +0.076
      +0.160     +0.338     -0.169
      +0.275     -0.204     +0.066
      +0.041     -0.051     +0.073
      +0.047     -0.053     +0.022
      -0.476     -0.342     +0.117
      +0.178     +0.086     -0.075
      +0.154     +0.054     -0.059
      +0.110     -0.102     +0.041
      -0.065     +0.011     -0.062
vibration  9
      +0.224     +0.322     -0.207
      -0.371     -0.143     +0.164
      +0.114     -0.147     +0.055
      +0.374     +0.089     -0.015
      +0.313     -0.075     -0.101
      -0.274     -0.296     -0.006
      -0.031     -0.048     +0.012
      -0.070     -0.098     +0.048
      -0.133     +0.235     -0.108
      -0.126     +0.160     +0.101
vibration  10
      +0.030     +0.086     +0.219
      +0.052     -0.225     -0.367
      -0.044     +0.143     +0.107
      +0.203     +0.176     -0.082
      -0.320     -0.308     -0.031
      -0.041     -0.134     -0.167
      +0.223     -0.285     +0.257
      -0.142     +0.379     -0.049
      +0.008     -0.024     +0.016
      -0.039     +0.105     +0.142
vibration  11
      +0.129     -0.020     +0.011
      -0.343     +0.326     -0.185
      +0.317     -0.334     +0.162
      -0.013     +0.045     -0.067
      -0.082     +0.013     +0.000
      +0.155     +0.105     -0.058
      -0.338     +0.118     -0.008
      -0.431     +0.203     -0.038
      +0.168     -0.201     +0.088
      +0.014     -0.005     +0.037
vibration  12
      -0.019     -0.069     -0.163
      -0.065     +0.044     +0.047
      +0.026     +0.010     +0.113
      -0.114     -0.145     -0.007
      +0.184     +0.198     +0.012
      +0.028     +0.084     +0.095
      +0.680     -0.123     -0.009
      -0.515     +0.110     +0.024
      -0.058     +0.106     -0.029
      -0.016     -0.181     -0.132
vibration  13
      -0.034     +0.150     -0.189
      +0.246     -0.215     +0.146
      -0.062     +0.217     -0.097
      -0.082     -0.112     +0.383
      +0.114     -0.161     -0.105
      -0.164     -0.101     +0.041
      -0.202     -0.007     +0.039
      -0.437     -0.027     +0.048
      +0.239     -0.382     +0.177
      +0.048     +0.149     -0.049
vibration  14
      -0.252     -0.008     +0.017
      +0.065     -0.078     -0.007
      -0.008     +0.083     -0.041
      +0.738     -0.212     -0.157
      +0.067     +0.148     +0.053
      +0.117     +0.311     +0.193
      -0.072     -0.015     +0.018
      -0.028     +0.003     +0.000
      +0.106     -0.163     +0.074
      -0.250     -0.107     -0.050
vibration  15
      +0.030     +0.036     -0.076
      -0.114     +0.121     -0.077
      +0.032     -0.123     +0.062
      +0.129     -0.358     +0.630
      -0.211     -0.337     -0.113
      +0.166     +0.228     +0.069
      +0.090     +0.020     -0.041
      +0.142     +0.054     -0.023
      -0.129     +0.205     -0.093
      -0.023     +0.137     -0.147
vibration  16
      +0.210     +0.101     -0.072
      +0.264     -0.037     -0.062
      -0.058     -0.079     +0.052
      -0.008     -0.069     -0.048
      -0.468     +0.218     +0.009
      -0.248     -0.116     +0.478
      -0.260     +0.016     +0.062
      -0.203     +0.012     -0.016
      -0.174     +0.246     -0.109
      -0.044     -0.210     -0.122
vibration  17
      -0.133     +0.218     +0.208
      +0.291     -0.020     -0.032
      -0.050     -0.094     +0.053
      -0.031     -0.084     -0.040
      +0.317     -0.255     +0.004
      +0.064     +0.005     -0.387
      -0.246     +0.084     -0.048
      -0.173     +0.114     +0.006
      -0.177     +0.250     -0.112
      -0.099     -0.421     -0.239
vibration  18
      -0.236     -0.301     -0.096
      +0.356     +0.050     -0.025
      -0.059     -0.108     +0.069
      +0.095     +0.132     +0.014
      +0.139     +0.090     +0.020
      +0.074     +0.083     -0.014
      -0.126     +0.087     -0.055
      -0.253     +0.087     -0.002
      -0.209     +0.298     -0.131
      +0.102     +0.522     +0.312
vibration  19
      +0.044     +0.006     -0.023
      -0.055     -0.275     +0.148
      -0.010     +0.018     -0.008
      -0.002     +0.008     -0.014
      -0.045     +0.047     +0.002
      -0.041     -0.034     +0.069
      +0.023     +0.238     -0.616
      +0.121     +0.641     +0.141
      +0.020     -0.041     +0.019
      +0.002     -0.002     +0.001
vibration  20
      -0.002     +0.008     -0.002
      -0.046     -0.218     +0.087
      +0.004     +0.000     -0.001
      +0.003     +0.004     +0.000
      +0.004     +0.006     -0.013
      +0.019     -0.020     +0.009
      +0.133     +0.658     +0.325
      -0.002     +0.081     -0.616
      -0.011     -0.005     +0.004
      -0.000     -0.002     -0.001
vibration  21
      +0.165     -0.076     -0.142
      -0.007     +0.006     +0.045
      -0.001     +0.001     -0.000
      -0.002     -0.001     +0.001
      -0.022     -0.161     +0.653
      -0.507     +0.428     -0.185
      -0.012     -0.056     -0.026
      -0.002     +0.016     -0.117
      -0.001     -0.001     +0.000
      +0.003     +0.013     +0.007
vibration  22
      -0.025     +0.016     +0.012
      +0.031     +0.125     +0.284
      +0.001     +0.000     -0.000
      -0.003     -0.003     -0.001
      +0.007     +0.020     -0.075
      +0.082     -0.071     +0.028
      -0.113     -0.533     -0.256
      +0.006     +0.102     -0.715
      -0.002     -0.003     -0.003
      -0.000     -0.001     -0.001
vibration  23
      +0.134     -0.165     +0.242
      -0.000     +0.001     +0.007
      -0.001     +0.000     -0.000
      -0.000     +0.001     -0.001
      +0.025     +0.154     -0.662
      -0.483     +0.414     -0.170
      -0.002     -0.005     -0.004
      +0.004     +0.005     -0.025
      -0.003     +0.000     +0.000
      -0.000     -0.000     +0.000
vibration  24
      -0.001     -0.001     +0.000
      -0.006     +0.015     -0.008
      +0.219     +0.081     -0.072
      -0.001     -0.000     -0.000
      -0.001     -0.000     +0.001
      +0.002     -0.001     +0.000
      -0.004     -0.005     -0.003
      -0.003     -0.000     +0.007
      -0.843     -0.367     +0.306
      +0.000     -0.000     -0.000
