[Molden Format]
[FR-COORD] # Coordinates in bohr
  C    -2.390542    -0.016996    -0.422447 
  C    +0.196404    -1.031969    +0.441108 
  O    +2.239414    +0.688948    -0.021171 
  H    -2.820638    +2.091070    +0.739635 
  H    -3.936236    -1.263044    +0.094671 
  H    -2.453211    +0.434916    -2.424475 
  H    +0.157747    -1.361401    +2.481366 
  H    +0.545719    -2.865169    -0.470476 
  H    +2.225665    +0.919799    -1.880093 
  H    -3.134957    +3.599566    +1.573180 
[FREQ] # Frequencies in cm^-1
 -2765.2969
  149.6041
  343.9617
  374.0718
  506.6742
  721.9980
 1005.1913
 1072.5546
 1248.6616
 1266.9800
 1336.6005
 1470.1054
 1566.2247
 1592.4533
 1660.6672
 1735.8624
 1764.5332
 1792.4307
 1815.1321
 3544.0056
 3613.5843
 3675.3256
 3756.9232
 4224.5589
[FR-NORM-COORD] # Displacements in bohr
vibration  1
      -0.043     +0.186     +0.099
      +0.000     -0.015     -0.008
      -0.002     +0.001     +0.000
      +0.162     -0.782     -0.432
      +0.034     -0.041     -0.039
      +0.013     -0.068     -0.006
      +0.000     +0.001     -0.002
      +0.006     +0.001     +0.002
      -0.000     -0.001     +0.000
      -0.061     +0.298     +0.165
vibration  2
      +0.038     +0.091     -0.106
      -0.041     +0.163     +0.225
      +0.114     -0.137     -0.222
      -0.218     -0.139     +0.181
      +0.034     -0.116     -0.302
      +0.155     +0.248     +0.015
      -0.033     +0.199     +0.090
      -0.043     -0.029     +0.206
      +0.073     -0.215     -0.078
      -0.409     -0.278     +0.363
vibration  3
      +0.087     -0.071     -0.143
      -0.024     -0.084     +0.085
      -0.342     +0.242     -0.030
      +0.231     -0.053     +0.077
      -0.034     +0.032     -0.096
      +0.089     +0.058     -0.025
      -0.043     +0.059     +0.037
      +0.066     -0.046     +0.101
      +0.231     -0.389     -0.065
      +0.605     -0.087     +0.291
vibration  4
      +0.171     -0.008     -0.141
      -0.019     -0.066     +0.231
      -0.111     -0.085     -0.125
      +0.100     -0.024     +0.009
      -0.015     +0.026     -0.169
      +0.191     +0.056     -0.033
      -0.016     +0.084     +0.083
      +0.004     -0.063     +0.153
      -0.596     +0.552     +0.044
      +0.249     -0.039     +0.098
vibration  5
      -0.348     -0.188     -0.179
      -0.108     +0.356     -0.088
      +0.409     -0.120     +0.103
      -0.004     -0.068     -0.007
      +0.014     -0.106     +0.170
      -0.282     -0.189     -0.076
      -0.112     +0.210     -0.010
      -0.018     +0.043     +0.100
      +0.039     +0.168     +0.050
      +0.311     -0.162     +0.287
vibration  6
      +0.259     +0.178     -0.167
      +0.020     -0.113     +0.002
      -0.155     +0.006     +0.009
      +0.145     +0.122     -0.149
      +0.007     +0.330     +0.411
      -0.105     -0.396     -0.143
      -0.049     +0.018     +0.007
      +0.012     -0.052     +0.042
      -0.042     -0.013     +0.001
      -0.315     -0.259     +0.369
vibration  7
      +0.110     +0.011     +0.010
      +0.086     -0.160     -0.299
      -0.124     -0.024     +0.086
      +0.148     -0.100     +0.174
      +0.070     +0.015     +0.136
      -0.328     +0.339     +0.094
      -0.193     +0.428     -0.012
      +0.141     -0.262     +0.388
      +0.086     +0.125     +0.039
      -0.106     +0.065     -0.160
vibration  8
      -0.463     +0.002     -0.099
      +0.174     -0.361     +0.144
      +0.288     +0.215     -0.045
      +0.066     +0.030     -0.047
      -0.459     +0.362     -0.101
      -0.013     +0.108     -0.013
      +0.111     -0.034     +0.060
      +0.204     -0.111     +0.107
      +0.019     +0.032     -0.021
      -0.081     -0.004     +0.039
vibration  9
      +0.047     -0.188     +0.274
      -0.182     +0.108     -0.303
      -0.046     -0.039     +0.038
      +0.116     +0.050     -0.083
      -0.241     +0.175     -0.139
      +0.471     -0.171     +0.043
      +0.229     +0.298     -0.044
      -0.193     -0.086     +0.097
      +0.312     +0.238     +0.040
      -0.047     -0.071     +0.034
vibration  10
      +0.208     -0.298     +0.033
      -0.356     +0.184     +0.068
      +0.199     +0.087     -0.069
      +0.395     -0.195     +0.093
      -0.171     +0.261     +0.117
      +0.013     +0.237     +0.096
      -0.318     -0.162     -0.025
      +0.017     +0.165     -0.141
      -0.102     -0.085     -0.037
      -0.117     -0.175     -0.178
vibration  11
      -0.086     -0.077     -0.093
      +0.341     +0.410     +0.016
      -0.345     -0.392     +0.089
      +0.130     -0.064     -0.016
      -0.162     +0.176     +0.030
      -0.066     +0.167     +0.017
      +0.348     +0.043     -0.001
      +0.320     +0.217     -0.111
      -0.042     -0.051     +0.045
      -0.035     -0.075     -0.049
vibration  12
      -0.051     +0.016     +0.222
      +0.013     +0.055     -0.199
      +0.009     -0.083     -0.005
      -0.064     +0.169     -0.036
      -0.048     -0.045     -0.134
      +0.255     -0.206     +0.008
      -0.491     +0.040     -0.070
      +0.626     +0.086     +0.047
      -0.155     -0.121     -0.013
      -0.027     +0.161     +0.138
vibration  13
      -0.214     +0.076     -0.091
      -0.048     -0.014     +0.058
      +0.018     +0.005     -0.000
      +0.703     +0.122     +0.324
      +0.161     -0.321     -0.152
      +0.028     -0.216     -0.093
      +0.146     -0.012     +0.021
      +0.030     +0.014     -0.001
      +0.011     +0.009     +0.000
      -0.244     +0.168     +0.017
vibration  14
      +0.064     +0.100     -0.136
      -0.097     -0.014     +0.011
      +0.004     -0.013     -0.018
      -0.273     -0.387     +0.666
      -0.079     +0.216     +0.119
      +0.111     -0.330     -0.125
      +0.081     +0.018     +0.008
      +0.132     +0.035     -0.012
      +0.059     +0.043     +0.001
      +0.064     +0.159     -0.156
vibration  15
      +0.106     +0.044     -0.034
      -0.524     -0.121     +0.115
      +0.052     -0.008     -0.099
      -0.068     +0.065     -0.157
      +0.170     -0.099     +0.116
      -0.058     +0.147     +0.027
      +0.364     -0.085     +0.045
      +0.534     +0.083     +0.057
      +0.270     +0.215     -0.003
      +0.022     -0.028     +0.030
vibration  16
      +0.008     +0.041     +0.021
      -0.219     -0.063     -0.255
      +0.180     +0.116     +0.215
      -0.022     -0.024     -0.026
      +0.045     -0.017     +0.050
      +0.066     +0.010     +0.005
      +0.412     +0.252     -0.034
      +0.046     -0.047     +0.028
      -0.562     -0.456     -0.019
      +0.027     -0.102     -0.054
vibration  17
      -0.332     +0.115     -0.099
      +0.123     -0.014     -0.018
      -0.023     -0.006     -0.014
      +0.040     -0.081     -0.012
      +0.222     -0.118     +0.540
      +0.591     +0.214     -0.004
      -0.095     -0.091     -0.022
      +0.003     -0.061     +0.087
      +0.024     +0.025     +0.001
      +0.029     -0.210     -0.128
vibration  18
      +0.065     -0.366     -0.211
      -0.033     +0.065     -0.023
      +0.017     +0.014     +0.025
      -0.086     +0.148     +0.046
      -0.012     +0.060     +0.258
      +0.133     +0.232     +0.008
      +0.081     -0.053     -0.019
      -0.107     -0.024     +0.040
      -0.058     -0.048     -0.001
      -0.128     +0.670     +0.377
vibration  19
      +0.035     +0.022     +0.038
      -0.015     +0.273     -0.158
      -0.008     +0.002     +0.018
      +0.004     -0.019     +0.016
      -0.043     +0.032     -0.095
      -0.060     -0.069     -0.005
      +0.112     -0.627     -0.157
      -0.004     -0.254     +0.611
      -0.056     -0.045     -0.001
      +0.011     -0.043     -0.028
vibration  20
      -0.004     -0.007     -0.000
      -0.043     +0.241     -0.030
      +0.002     +0.001     +0.001
      +0.003     -0.005     -0.001
      +0.023     +0.022     -0.010
      +0.004     -0.008     +0.022
      -0.014     -0.070     +0.462
      +0.141     -0.746     -0.378
      -0.004     -0.007     +0.001
      -0.000     +0.002     +0.001
vibration  21
      +0.160     +0.065     +0.157
      -0.010     +0.012     -0.015
      -0.001     -0.000     +0.000
      -0.002     +0.000     -0.001
      -0.495     -0.394     +0.175
      -0.019     +0.166     -0.696
      -0.004     -0.008     +0.048
      +0.003     -0.014     -0.008
      +0.000     -0.000     -0.001
      +0.003     -0.014     -0.007
vibration  22
      -0.011     -0.011     +0.006
      +0.027     -0.074     -0.302
      +0.001     -0.000     +0.007
      -0.002     +0.002     +0.001
      +0.039     +0.033     -0.013
      +0.005     -0.002     +0.001
      -0.017     -0.131     +0.823
      -0.079     +0.397     +0.199
      -0.009     -0.004     -0.016
      -0.000     +0.000     +0.000
vibration  23
      +0.148     +0.164     -0.233
      +0.000     -0.000     -0.012
      -0.001     -0.001     +0.001
      -0.000     -0.000     +0.001
      -0.525     -0.424     +0.177
      +0.019     -0.141     +0.623
      +0.003     -0.008     +0.038
      -0.002     +0.009     +0.005
      -0.002     +0.000     -0.002
      +0.000     -0.000     -0.000
vibration  24
      -0.000     -0.001     +0.001
      -0.012     -0.010     -0.007
      +0.012     +0.040     -0.240
      -0.000     +0.000     +0.000
      -0.001     -0.001     +0.001
      +0.001     -0.000     +0.001
      +0.000     -0.001     +0.013
      -0.003     +0.005     +0.005
      -0.002     -0.127     +0.961
      +0.000     -0.000     -0.000
