[Molden Format]
[FR-COORD] # Coordinates in bohr
  C    +2.009397    -1.218098    -0.000008 
  C    +0.174425    +1.029360    -0.000005 
  O    -2.364982    +0.062101    +0.000011 
  H    +4.281691    -0.330603    -0.000006 
  H    +1.858274    -2.369234    +1.691594 
  H    +1.858275    -2.369231    -1.691611 
  H    +0.523563    +2.207659    +1.670237 
  H    +0.523546    +2.207649    -1.670256 
  H    -3.431389    +1.602172    +0.000009 
  H    +5.917604    +0.313290    -0.000005 
[FREQ] # Frequencies in cm^-1
 -2759.6031
  134.1787
  333.8005
  347.4433
  507.0107
  709.2466
  970.0491
 1140.7963
 1228.9666
 1337.0715
 1343.6397
 1507.4723
 1530.1235
 1574.4105
 1591.3560
 1734.8541
 1784.3469
 1803.4915
 1839.8972
 3540.9156
 3624.3877
 3652.3781
 3767.5122
 4224.0368
[FR-NORM-COORD] # Displacements in bohr
vibration  1
      -0.201     -0.072     -0.000
      +0.015     +0.011     -0.000
      -0.001     -0.003     +0.000
      +0.843     +0.331     +0.000
      +0.063     +0.009     +0.024
      +0.063     +0.009     -0.024
      +0.001     +0.001     +0.001
      +0.001     +0.001     -0.001
      +0.003     +0.001     -0.000
      -0.328     -0.128     -0.000
vibration  2
      -0.000     +0.000     -0.180
      -0.000     -0.000     -0.317
      +0.000     +0.000     +0.342
      -0.000     -0.000     +0.319
      -0.214     -0.121     -0.153
      +0.214     +0.121     -0.153
      +0.075     +0.084     -0.167
      -0.075     -0.084     -0.167
      +0.000     -0.000     +0.046
      -0.000     -0.000     +0.630
vibration  3
      -0.140     +0.248     +0.000
      -0.047     +0.312     +0.000
      +0.195     -0.305     +0.000
      +0.082     -0.217     -0.000
      -0.132     +0.072     -0.007
      -0.132     +0.072     +0.007
      -0.065     +0.099     +0.004
      -0.065     +0.099     -0.004
      -0.072     -0.160     -0.000
      +0.253     -0.682     -0.000
vibration  4
      -0.000     +0.000     +0.089
      -0.000     +0.000     -0.123
      +0.000     -0.000     -0.232
      +0.000     -0.000     +0.021
      -0.012     +0.053     +0.061
      +0.012     -0.053     +0.061
      -0.010     +0.004     -0.040
      +0.010     -0.004     -0.040
      +0.000     +0.000     +0.951
      +0.000     -0.000     +0.031
vibration  5
      +0.462     +0.127     -0.000
      -0.150     -0.259     +0.000
      -0.480     +0.198     +0.000
      +0.154     +0.005     -0.000
      +0.233     +0.014     -0.006
      +0.233     +0.014     +0.006
      -0.055     -0.064     -0.006
      -0.055     -0.064     +0.006
      +0.013     +0.144     -0.000
      +0.315     -0.379     -0.000
vibration  6
      -0.000     -0.000     +0.265
      +0.000     +0.000     -0.010
      +0.000     -0.000     -0.012
      -0.000     -0.000     +0.218
      -0.332     -0.349     -0.190
      +0.332     +0.349     -0.190
      -0.042     +0.118     -0.077
      +0.042     -0.118     -0.077
      +0.000     -0.000     +0.030
      -0.000     +0.000     -0.549
vibration  7
      -0.000     -0.000     +0.054
      +0.000     +0.000     +0.257
      +0.000     -0.000     -0.109
      +0.000     -0.000     -0.179
      +0.362     -0.255     -0.127
      -0.362     +0.255     -0.127
      -0.060     +0.412     -0.206
      +0.060     -0.412     -0.206
      +0.000     +0.000     +0.032
      -0.000     +0.000     +0.173
vibration  8
      -0.381     +0.401     +0.000
      +0.006     -0.491     +0.000
      +0.257     +0.051     -0.000
      -0.240     +0.296     +0.000
      +0.101     +0.137     +0.019
      +0.101     +0.137     -0.019
      +0.076     -0.176     +0.000
      +0.076     -0.176     -0.000
      +0.211     +0.107     -0.000
      -0.055     -0.217     -0.000
vibration  9
      +0.104     +0.312     -0.000
      +0.267     -0.264     -0.000
      -0.215     -0.097     +0.000
      +0.258     -0.220     +0.000
      -0.473     +0.117     -0.027
      -0.473     +0.117     +0.027
      +0.008     -0.066     -0.003
      +0.008     -0.066     +0.003
      +0.184     +0.148     -0.000
      +0.062     +0.191     -0.000
vibration  10
      -0.136     +0.075     +0.000
      +0.513     +0.179     -0.000
      -0.474     -0.216     +0.000
      -0.138     +0.102     -0.000
      +0.120     +0.049     +0.025
      +0.120     +0.049     -0.025
      +0.377     -0.021     +0.001
      +0.377     -0.021     -0.001
      -0.200     -0.090     +0.000
      -0.066     -0.083     +0.000
vibration  11
      -0.000     +0.000     -0.228
      +0.000     +0.000     +0.446
      -0.000     -0.000     -0.176
      -0.000     +0.000     +0.131
      -0.213     +0.225     +0.067
      +0.213     -0.225     +0.067
      +0.418     +0.242     -0.122
      -0.418     -0.242     -0.122
      -0.000     +0.000     -0.008
      -0.000     -0.000     -0.064
vibration  12
      -0.000     -0.000     -0.300
      +0.000     +0.000     +0.166
      -0.000     -0.000     +0.076
      -0.000     -0.000     +0.102
      -0.174     +0.233     +0.049
      +0.174     -0.233     +0.049
      -0.537     +0.239     -0.007
      +0.537     -0.239     -0.007
      +0.000     +0.000     +0.017
      -0.000     -0.000     -0.041
vibration  13
      -0.100     -0.031     +0.000
      +0.322     +0.101     -0.000
      -0.156     -0.191     +0.000
      -0.103     -0.188     -0.000
      +0.205     +0.047     +0.052
      +0.205     +0.047     -0.052
      -0.335     +0.173     -0.010
      -0.335     +0.173     +0.010
      +0.469     +0.321     -0.000
      -0.252     -0.053     +0.000
vibration  14
      +0.123     -0.236     +0.000
      +0.149     +0.077     -0.000
      -0.072     -0.060     +0.000
      -0.191     +0.755     -0.000
      -0.260     -0.052     -0.005
      -0.260     -0.052     +0.005
      -0.136     +0.101     -0.014
      -0.136     +0.101     +0.014
      +0.115     +0.083     -0.000
      +0.213     -0.151     +0.000
vibration  15
      +0.000     -0.000     -0.141
      +0.000     +0.000     -0.046
      -0.000     -0.000     +0.004
      -0.000     +0.000     +0.826
      +0.346     +0.034     +0.013
      -0.346     -0.034     +0.013
      +0.012     -0.027     +0.000
      -0.012     +0.027     +0.000
      +0.000     +0.000     +0.001
      +0.000     -0.000     -0.225
vibration  16
      -0.191     +0.102     +0.000
      -0.209     +0.191     +0.000
      -0.027     -0.192     +0.000
      +0.122     +0.019     -0.000
      +0.070     -0.326     -0.221
      +0.070     -0.326     +0.221
      +0.226     -0.013     -0.009
      +0.226     -0.013     +0.009
      +0.427     +0.263     -0.000
      +0.351     +0.150     +0.000
vibration  17
      -0.297     -0.247     -0.000
      +0.031     +0.043     -0.000
      -0.002     -0.017     +0.000
      +0.153     -0.015     -0.000
      +0.098     +0.310     +0.279
      +0.098     +0.310     -0.279
      -0.037     -0.053     +0.053
      -0.037     -0.053     -0.053
      +0.034     +0.021     -0.000
      +0.614     +0.252     +0.000
vibration  18
      +0.274     -0.185     -0.000
      -0.399     +0.176     +0.000
      +0.009     -0.136     +0.000
      -0.081     +0.002     +0.000
      -0.088     +0.269     +0.204
      -0.088     +0.269     -0.204
      +0.302     -0.021     -0.034
      +0.302     -0.021     +0.034
      +0.334     +0.201     -0.000
      -0.281     -0.126     -0.000
vibration  19
      -0.070     -0.000     -0.000
      -0.051     -0.310     +0.000
      +0.012     +0.014     -0.000
      +0.033     -0.024     -0.000
      +0.017     +0.029     +0.024
      +0.017     +0.029     -0.024
      +0.131     +0.487     -0.430
      +0.131     +0.487     +0.430
      -0.045     -0.036     +0.000
      +0.087     +0.041     +0.000
vibration  20
      -0.004     +0.010     +0.000
      -0.061     -0.231     -0.000
      -0.003     +0.003     -0.000
      +0.002     -0.001     +0.000
      -0.003     -0.000     +0.007
      -0.003     -0.000     -0.007
      +0.116     +0.383     +0.558
      +0.116     +0.383     -0.558
      +0.008     -0.011     +0.000
      +0.000     +0.000     +0.000
vibration  21
      +0.021     +0.232     -0.000
      +0.008     -0.006     +0.000
      +0.000     +0.000     +0.000
      +0.001     -0.002     +0.000
      -0.044     -0.380     +0.571
      -0.044     -0.380     -0.571
      -0.000     -0.007     -0.005
      -0.000     -0.007     +0.005
      -0.001     +0.000     -0.000
      -0.015     -0.005     -0.000
vibration  22
      -0.000     -0.000     -0.019
      +0.000     -0.000     +0.316
      -0.000     +0.000     +0.000
      +0.000     -0.000     -0.001
      -0.006     -0.017     +0.029
      +0.006     +0.017     +0.029
      -0.110     -0.380     -0.540
      +0.110     +0.380     -0.540
      +0.000     -0.000     -0.004
      +0.000     +0.000     -0.000
vibration  23
      +0.000     +0.000     +0.322
      +0.000     -0.000     +0.014
      -0.000     -0.000     -0.000
      +0.000     -0.000     -0.001
      +0.049     +0.374     -0.552
      -0.049     -0.374     -0.552
      -0.002     -0.022     -0.027
      +0.002     +0.022     -0.027
      +0.000     -0.000     -0.000
      -0.000     -0.000     +0.000
vibration  24
      -0.000     +0.001     -0.000
      -0.013     -0.013     +0.000
      +0.153     -0.191     +0.000
      +0.001     -0.000     -0.000
      -0.001     +0.001     -0.000
      -0.001     +0.001     +0.000
      -0.002     +0.005     +0.006
      -0.002     +0.005     -0.006
      -0.561     +0.791     -0.000
      -0.000     +0.000     -0.000
