The product: Z conformer of formic acid                                 
Freq      RHF                                                         STO-3G              
Number of atoms                            I                5
Info1-9                                    I   N=           9
          14          14        1002           0           0         100
           6           1           2
Charge                                     I                0
Multiplicity                               I                1
Number of electrons                        I               24
Number of alpha electrons                  I               12
Number of beta electrons                   I               12
Number of basis functions                  I               17
Number of independent functions            I               17
Number of point charges in /Mol/           I                0
Number of translation vectors              I                0
Atomic numbers                             I   N=           5
           6           8           8           1           1
Nuclear charges                            R   N=           5
  6.00000000E+00  8.00000000E+00  8.00000000E+00  1.00000000E+00  1.00000000E+00
Current cartesian coordinates              R   N=          15
  8.06498178E-33  8.35562584E-01  6.16297582E-33 -1.97675111E+00 -8.81882740E-01
  1.97215226E-31  2.21225657E+00  2.26888436E-01 -9.86076132E-32 -1.14984946E+00
 -2.56085572E+00  9.86076132E-32 -7.34194234E-01  2.78743465E+00  2.46519033E-32
Force Field                                I                0
Int Atom Types                             I   N=           5
           0           0           0           0           0
MM charges                                 R   N=           5
  0.00000000E+00  0.00000000E+00  0.00000000E+00  0.00000000E+00  0.00000000E+00
Integer atomic weights                     I   N=           5
          12          16          16           1           1
Real atomic weights                        R   N=           5
  1.20000000E+01  1.59949146E+01  1.59949146E+01  1.00782504E+00  1.00782504E+00
Atom fragment info                         I   N=           5
           0           0           0           0           0
Atom residue num                           I   N=           5
           0           0           0           0           0
Nuclear spins                              I   N=           5
           0           0           0           1           1
Nuclear ZEff                               R   N=           5
 -3.60000000E+00 -5.60000000E+00 -5.60000000E+00 -1.00000000E+00 -1.00000000E+00
Nuclear QMom                               R   N=           5
  0.00000000E+00  0.00000000E+00  0.00000000E+00  0.00000000E+00  0.00000000E+00
Nuclear GFac                               R   N=           5
  0.00000000E+00  0.00000000E+00  0.00000000E+00  2.79284600E+00  2.79284600E+00
MicOpt                                     I   N=           5
          -1          -1          -1          -1          -1
Number of contracted shells                I                8
Number of primitive shells                 I               24
Pure/Cartesian d shells                    I                0
Pure/Cartesian f shells                    I                0
Highest angular momentum                   I                1
Largest degree of contraction              I                3
Shell types                                I   N=           8
           0          -1           0          -1           0          -1
           0           0
Number of primitives per shell             I   N=           8
           3           3           3           3           3           3
           3           3
Shell to atom map                          I   N=           8
           1           1           2           2           3           3
           4           5
Primitive exponents                        R   N=          24
  7.16168373E+01  1.30450963E+01  3.53051216E+00  2.94124936E+00  6.83483096E-01
  2.22289916E-01  1.30709321E+02  2.38088661E+01  6.44360831E+00  5.03315132E+00
  1.16959612E+00  3.80388960E-01  1.30709321E+02  2.38088661E+01  6.44360831E+00
  5.03315132E+00  1.16959612E+00  3.80388960E-01  3.42525091E+00  6.23913730E-01
  1.68855404E-01  3.42525091E+00  6.23913730E-01  1.68855404E-01
Contraction coefficients                   R   N=          24
  1.54328967E-01  5.35328142E-01  4.44634542E-01 -9.99672292E-02  3.99512826E-01
  7.00115469E-01  1.54328967E-01  5.35328142E-01  4.44634542E-01 -9.99672292E-02
  3.99512826E-01  7.00115469E-01  1.54328967E-01  5.35328142E-01  4.44634542E-01
 -9.99672292E-02  3.99512826E-01  7.00115469E-01  1.54328967E-01  5.35328142E-01
  4.44634542E-01  1.54328967E-01  5.35328142E-01  4.44634542E-01
P(S=P) Contraction coefficients            R   N=          24
  0.00000000E+00  0.00000000E+00  0.00000000E+00  1.55916275E-01  6.07683719E-01
  3.91957393E-01  0.00000000E+00  0.00000000E+00  0.00000000E+00  1.55916275E-01
  6.07683719E-01  3.91957393E-01  0.00000000E+00  0.00000000E+00  0.00000000E+00
  1.55916275E-01  6.07683719E-01  3.91957393E-01  0.00000000E+00  0.00000000E+00
  0.00000000E+00  0.00000000E+00  0.00000000E+00  0.00000000E+00
Coordinates of each shell                  R   N=          24
  8.06498178E-33  8.35562584E-01  6.16297582E-33  8.06498178E-33  8.35562584E-01
  6.16297582E-33 -1.97675111E+00 -8.81882740E-01  9.86076132E-32 -1.97675111E+00
 -8.81882740E-01  9.86076132E-32  2.21225657E+00  2.26888436E-01 -9.86076132E-32
  2.21225657E+00  2.26888436E-01 -9.86076132E-32 -1.14984946E+00 -2.56085572E+00
  4.93038066E-32 -7.34194234E-01  2.78743465E+00  2.46519033E-32
Constraint Structure                       R   N=          15
  8.06498178E-33  8.35562584E-01  6.16297582E-33 -1.97675111E+00 -8.81882740E-01
  9.86076132E-32  2.21225657E+00  2.26888436E-01 -9.86076132E-32 -1.14984946E+00
 -2.56085572E+00  4.93038066E-32 -7.34194234E-01  2.78743465E+00  2.46519033E-32
Num ILSW                                   I              100
ILSW                                       I   N=         100
           0           0           0           0           2           0
           0           0           0           0           0          -1
           0           0           0           0           0           0
           0           0           0           0           1           0
           1           0           0           0           0           0
           0           0      100000           0          -1           0
           0           0           0           0           0           0
           0           0           0           1           0           0
           0           0           1           0           0           0
           0           0           4          40           0           0
           0           0           0           0           0           0
           0           0           0           0           0           0
           0           0           0           0           0           0
           0           0           0           0           0           0
           0           0           0           0           0           0
           0           0           0           0           0           0
           0           0           0           0
Num RLSW                                   I               40
RLSW                                       R   N=          40
  1.00000000E+00  1.00000000E+00  1.00000000E+00  1.00000000E+00  1.00000000E+00
  0.00000000E+00  0.00000000E+00  1.00000000E+00  0.00000000E+00  0.00000000E+00
  0.00000000E+00  0.00000000E+00  1.00000000E+00  0.00000000E+00  0.00000000E+00
  0.00000000E+00  0.00000000E+00  1.00000000E+00  0.00000000E+00  0.00000000E+00
  0.00000000E+00  0.00000000E+00  1.00000000E+00  0.00000000E+00  0.00000000E+00
  0.00000000E+00  0.00000000E+00  1.00000000E+00  0.00000000E+00  0.00000000E+00
  0.00000000E+00  0.00000000E+00  1.00000000E+00  0.00000000E+00  0.00000000E+00
  0.00000000E+00  0.00000000E+00  0.00000000E+00  1.00000000E+00  1.00000000E+00
MxBond                                     I                3
NBond                                      I   N=           5
           3           2           1           1           1
IBond                                      I   N=          15
           2           3           5           1           4           0
           1           0           0           2           0           0
           1           0           0
RBond                                      R   N=          15
  1.00000000E+00  2.00000000E+00  1.00000000E+00  1.00000000E+00  1.00000000E+00
  0.00000000E+00  2.00000000E+00  0.00000000E+00  0.00000000E+00  1.00000000E+00
  0.00000000E+00  0.00000000E+00  1.00000000E+00  0.00000000E+00  0.00000000E+00
Virial Ratio                               R      2.008893655434055E+00
SCF Energy                                 R     -1.862178841961976E+02
Total Energy                               R     -1.862178841961976E+02
RMS Force                                  R      1.466714010390969E-06
RMS Density                                R      1.591251821030622E-09
External E-field                           R   N=          35
  0.00000000E+00  0.00000000E+00  0.00000000E+00  0.00000000E+00  0.00000000E+00
  0.00000000E+00  0.00000000E+00  0.00000000E+00  0.00000000E+00  0.00000000E+00
  0.00000000E+00  0.00000000E+00  0.00000000E+00  0.00000000E+00  0.00000000E+00
  0.00000000E+00  0.00000000E+00  0.00000000E+00  0.00000000E+00  0.00000000E+00
  0.00000000E+00  0.00000000E+00  0.00000000E+00  0.00000000E+00  0.00000000E+00
  0.00000000E+00  0.00000000E+00  0.00000000E+00  0.00000000E+00  0.00000000E+00
  0.00000000E+00  0.00000000E+00  0.00000000E+00  0.00000000E+00  0.00000000E+00
IOpCl                                      I                0
IROHF                                      I                0
Alpha Orbital Energies                     R   N=          17
 -2.03145562E+01 -2.02817699E+01 -1.11800900E+01 -1.38253307E+00 -1.28419244E+00
 -8.00887270E-01 -6.24956347E-01 -5.94243489E-01 -5.33707756E-01 -4.75851275E-01
 -3.64834645E-01 -3.61171936E-01  2.96163889E-01  5.54432155E-01  6.49314042E-01
  6.96644521E-01  9.48595858E-01
Alpha MO coefficients                      R   N=         289
  4.96246448E-04 -4.42392060E-03  3.41736399E-03  2.88401719E-03  0.00000000E+00
  9.94167536E-01  2.60959774E-02  4.09175064E-03 -6.05309463E-04  0.00000000E+00
  1.14348928E-03  2.34092966E-04 -2.40787744E-04 -5.40300724E-04  0.00000000E+00
 -5.64167868E-03  2.49915746E-04  5.26931622E-04 -7.24953660E-03 -6.20164363E-03
  1.81148701E-03  0.00000000E+00 -1.21512691E-03  2.53451121E-04  4.13795698E-04
 -2.80766179E-04  0.00000000E+00  9.94247417E-01  2.61667173E-02 -5.56593169E-03
  1.48520111E-03  0.00000000E+00 -1.08167146E-04  9.45915836E-05  9.92778474E-01
  3.14025119E-02  4.04966465E-04 -8.60795765E-05  0.00000000E+00  3.45328486E-04
 -4.15040474E-03 -1.74200439E-03 -1.92996281E-03  0.00000000E+00  1.07360262E-04
 -5.51767492E-03  1.44591399E-03 -3.46471437E-04  0.00000000E+00 -1.43620674E-03
 -6.44215798E-03 -1.31851227E-01  3.06289591E-01  5.42736392E-02 -8.18655011E-02
  0.00000000E+00 -1.47718733E-01  5.22507677E-01  1.01090367E-01  6.62778799E-03
  0.00000000E+00 -1.50719754E-01  5.17162305E-01 -1.31291558E-01  2.42923897E-02
  0.00000000E+00  8.10416503E-02  3.32081180E-02  3.14016154E-02 -6.60531384E-02
 -2.02200035E-01 -2.74643534E-02  0.00000000E+00 -1.75466280E-01  6.38156427E-01
  7.45489678E-02 -2.07573109E-02  0.00000000E+00  1.60635375E-01 -5.67694872E-01
  1.01611242E-01 -3.61934390E-02  0.00000000E+00  1.12065931E-01 -6.64338291E-03
 -1.62521962E-01  5.29827461E-01 -1.86186926E-01  1.80011425E-01  0.00000000E+00
  3.91331859E-02 -1.68269708E-01  5.92190973E-02  3.18348742E-01  0.00000000E+00
  7.32891658E-02 -3.14197499E-01 -1.01181056E-01  9.91415404E-02  0.00000000E+00
 -2.33659246E-01  2.99733611E-01  2.17945462E-02 -9.62309959E-02  1.12221032E-01
  5.00944029E-01  0.00000000E+00 -3.94957498E-02  1.92317773E-01 -3.16062077E-01
 -3.12951498E-01  0.00000000E+00 -1.60755118E-02  7.91198031E-02  1.72364387E-01
  3.51969632E-01  0.00000000E+00  1.93582602E-01  2.56968946E-01  7.09430563E-02
 -2.30309889E-01 -2.96349290E-01  4.74400738E-02  0.00000000E+00 -5.72511204E-02
  2.78844391E-01 -2.66931288E-01  3.50518867E-01  0.00000000E+00 -1.04239899E-01
  5.29264822E-01  4.76618840E-01 -1.07885438E-01  0.00000000E+00 -2.87150050E-01
 -2.01270741E-02  0.00000000E+00  0.00000000E+00  0.00000000E+00  0.00000000E+00
  5.21485541E-01  0.00000000E+00  0.00000000E+00  0.00000000E+00  0.00000000E+00
  6.15017813E-01  0.00000000E+00  0.00000000E+00  0.00000000E+00  0.00000000E+00
  4.05632368E-01  0.00000000E+00  0.00000000E+00 -4.33019430E-03  1.88995790E-02
 -2.97949296E-01  8.66890291E-02  0.00000000E+00  7.88362571E-02 -4.12389627E-01
  5.32346589E-01 -2.32082107E-01  0.00000000E+00 -4.24979195E-02  2.39980949E-01
  4.01817329E-01 -2.47681467E-01  0.00000000E+00  3.05108530E-01  2.41704904E-01
  0.00000000E+00  0.00000000E+00  0.00000000E+00  0.00000000E+00 -2.85198990E-01
  0.00000000E+00  0.00000000E+00  0.00000000E+00  0.00000000E+00  7.39171403E-01
  0.00000000E+00  0.00000000E+00  0.00000000E+00  0.00000000E+00 -6.05472359E-01
  0.00000000E+00  0.00000000E+00  4.77542655E-03  5.39714807E-03 -1.68578087E-02
 -1.01146385E-01  0.00000000E+00  2.03211176E-03 -7.68220648E-03  4.05627829E-01
  1.40105242E-01  0.00000000E+00 -3.23988719E-03  1.42915802E-02  2.63997997E-01
  8.25876814E-01  0.00000000E+00 -4.70218756E-02 -2.93307999E-01  0.00000000E+00
  0.00000000E+00  0.00000000E+00  0.00000000E+00  8.46267799E-01  0.00000000E+00
  0.00000000E+00  0.00000000E+00  0.00000000E+00 -3.12737114E-01  0.00000000E+00
  0.00000000E+00  0.00000000E+00  0.00000000E+00 -7.18042352E-01  0.00000000E+00
  0.00000000E+00 -1.17065549E-01  6.65767604E-01 -3.63252349E-01 -4.95627489E-03
  0.00000000E+00  1.19116041E-01 -7.64190080E-01 -5.81762549E-01  3.10417065E-01
  0.00000000E+00  1.41070080E-02 -6.47660127E-02  1.10004610E-01  6.91782158E-02
  0.00000000E+00  8.95956759E-01 -5.51032075E-01 -1.79712913E-01  1.09276452E+00
 -1.37777806E-01  1.86877737E-01  0.00000000E+00 -8.57677933E-03  7.65343695E-02
 -8.89941235E-02 -7.26755813E-01  0.00000000E+00  3.98853900E-02 -2.57831768E-01
  3.35999650E-01 -1.53379116E-01  0.00000000E+00 -6.51257851E-01 -7.75728313E-01
  1.15795028E-02  2.95980420E-03  3.07351942E-01  1.07130178E+00  0.00000000E+00
 -5.32361968E-02  3.42560479E-01  4.47607485E-01  4.58900244E-01  0.00000000E+00
 -2.42102499E-03  1.60078130E-02 -1.09873458E-01 -3.32778332E-01  0.00000000E+00
  1.93767440E-01 -7.39010383E-01 -7.07914748E-02  5.06770515E-01  1.16412569E+00
 -3.64729368E-01  0.00000000E+00 -9.70105114E-03  6.91124597E-02 -4.37376367E-02
  3.08209526E-01  0.00000000E+00  1.11649347E-01 -8.42813122E-01  8.63837523E-01
 -2.31393898E-01  0.00000000E+00  1.14529223E-01  2.82758853E-01
Total SCF Density                          R   N=         153
  2.07188658E+00 -2.31779946E-01  8.85282174E-01 -4.27923873E-04 -3.37881215E-02
  5.36041573E-01 -1.19644926E-02  2.80923617E-02 -2.87464754E-02  6.21626061E-01
  0.00000000E+00  0.00000000E+00  1.74183265E-32  6.53187244E-33  7.06571265E-01
  6.37696462E-03  2.37582800E-03  2.51833718E-02  2.18981246E-02  0.00000000E+00
  2.10713644E+00  2.17263895E-04 -1.24156210E-01 -1.46276921E-02 -3.18401776E-02
  1.64370206E-34 -4.51777516E-01  1.98827085E+00 -9.70659597E-02  3.22962154E-01
 -2.84833149E-01 -3.31044537E-01  4.98145977E-33  9.78563200E-02 -5.34646494E-01
  1.27675607E+00 -7.09211284E-02  2.35545418E-01 -2.53851127E-01 -2.34201667E-01
  4.81453423E-33 -2.24001262E-02  1.37652746E-01 -8.67884434E-02  7.92237169E-01
  0.00000000E+00  0.00000000E+00  5.41907800E-33  2.03215425E-33  2.19823919E-01
  0.00000000E+00  0.00000000E+00  4.55873484E-32  1.70952557E-32  1.84924255E+00
  1.21196907E-02 -8.39013882E-04 -3.73276743E-02  1.31395256E-02  0.00000000E+00
  2.41205632E-04 -5.80083461E-03  2.09257017E-02 -6.75989612E-03  0.00000000E+00
  2.11072333E+00 -4.22764507E-03 -1.91662064E-01 -3.70389381E-02  1.68832338E-03
  9.23485416E-34 -6.71486775E-03  4.91438656E-02 -8.27200844E-02  4.45078584E-02
  2.31350838E-33 -4.65674514E-01  2.06669176E+00  1.50936861E-01 -4.35568948E-01
 -5.09745921E-01  2.13638738E-01  1.38828575E-32 -9.01431495E-03  2.31457418E-02
  2.55187471E-01  4.33276019E-02 -6.02382990E-33 -9.44483743E-02  5.44300813E-01
  1.05172032E+00 -3.15238555E-02  1.06185698E-01  2.43021817E-01  1.66092730E-01
 -4.96732486E-33 -3.89396210E-02  2.12609119E-01  2.52655208E-01  1.15402498E-01
 -5.51720895E-33  2.54095762E-02 -1.49774772E-01  2.21693974E-01  1.78134452E+00
  0.00000000E+00  0.00000000E+00  1.89430905E-32  7.10365892E-33  7.68423040E-01
  0.00000000E+00  0.00000000E+00 -9.76593632E-33 -3.66222612E-33 -3.96153441E-01
  0.00000000E+00  0.00000000E+00  2.61869475E-32  9.82010531E-33  1.06226879E+00
  2.33633832E-02 -1.06762095E-01  8.38607262E-02  1.25534547E-01  0.00000000E+00
 -2.72721961E-02 -3.05324141E-02  3.23009061E-01 -6.29599375E-01  0.00000000E+00
  5.10950890E-03 -2.48052576E-02  6.21573670E-02 -8.10776153E-02  0.00000000E+00
  5.77977430E-01 -1.15941110E-01  3.04210610E-01 -1.69865030E-01  4.59626430E-01
  0.00000000E+00  3.53961398E-02 -1.81813587E-01 -9.10493953E-02 -1.77746078E-01
  0.00000000E+00  9.26810470E-03 -1.94011057E-02  3.80311880E-02 -3.57439953E-01
  0.00000000E+00  1.49962748E-01  6.03835412E-01
QEq coupling tensors                       R   N=          30
 -1.41701637E-01 -4.76176061E-02  3.64894637E-02  2.72151765E-32  6.12223484E-33
  1.05212173E-01 -9.33073012E-02 -3.49476260E-01 -2.04730866E+00 -7.19592254E-32
 -3.13084055E-33  2.14061596E+00 -9.39538117E-01  8.61710691E-01  1.91839168E+00
 -8.74687967E-32  2.57468384E-32 -9.78853566E-01  8.79971495E-02  2.05243427E-01
 -3.08554827E-01  1.34416137E-32 -3.11094384E-32  2.20557677E-01  9.78885548E-02
  1.49209250E-01 -2.51336146E-01  2.98764302E-33 -5.99129783E-33  1.53447591E-01
Mulliken Charges                           R   N=           5
  2.55043219E-01 -2.85474816E-01 -2.50861564E-01  2.07271334E-01  7.40218265E-02
Optimization MaxStp                        I                2
Optimization Job offset                    I                0
Optimization Num results per geometry      I                2
Optimization Num geometry variables        I               15
Opt point       1 Results for each geome   R   N=           2
 -1.86217884E+02  0.00000000E+00
Opt point       1 Geometries               R   N=          15
  8.06498178E-33  8.35562584E-01  6.16297582E-33 -1.97675111E+00 -8.81882740E-01
  9.86076132E-32  2.21225657E+00  2.26888436E-01 -9.86076132E-32 -1.14984946E+00
 -2.56085572E+00  4.93038066E-32 -7.34194234E-01  2.78743465E+00  2.46519033E-32
Opt point       1 Gradient at each geome   R   N=          15
 -1.06240393E-06  3.29842528E-06  3.24421536E-31  2.04521360E-06 -1.78922432E-06
  3.95594098E-31 -1.97161629E-08 -8.54927482E-07 -5.99891354E-31 -1.25234929E-06
  1.93989234E-06 -1.56887212E-31  2.89255775E-07 -2.59416583E-06  3.67629393E-32
Optimization Number of geometries          I   N=           1
           1
ONIOM Charges                              I   N=          16
           0           0           0           0           0           0
           0           0           0           0           0           0
           0           0           0           0
ONIOM Multiplicities                       I   N=          16
           1           0           0           0           0           0
           0           0           0           0           0           0
           0           0           0           0
Atom Layers                                I   N=           5
           1           1           1           1           1
Atom Modifiers                             I   N=           5
           0           0           0           0           0
Force Field                                I                0
Int Atom Modified Types                    I   N=           5
           0           0           0           0           0
Link Atoms                                 I   N=           5
           0           0           0           0           0
Atom Modified MM Charges                   R   N=           5
  0.00000000E+00  0.00000000E+00  0.00000000E+00  0.00000000E+00  0.00000000E+00
Link Distances                             R   N=          20
  0.00000000E+00  0.00000000E+00  0.00000000E+00  0.00000000E+00  0.00000000E+00
  0.00000000E+00  0.00000000E+00  0.00000000E+00  0.00000000E+00  0.00000000E+00
  0.00000000E+00  0.00000000E+00  0.00000000E+00  0.00000000E+00  0.00000000E+00
  0.00000000E+00  0.00000000E+00  0.00000000E+00  0.00000000E+00  0.00000000E+00
Cartesian Gradient                         R   N=          15
 -1.06240393E-06  3.29842528E-06  3.24421536E-31  2.04521360E-06 -1.78922432E-06
  3.95594098E-31 -1.97161629E-08 -8.54927482E-07 -5.99891354E-31 -1.25234929E-06
  1.93989234E-06 -1.56887212E-31  2.89255775E-07 -2.59416583E-06  3.67629393E-32
Cartesian Force Constants                  R   N=         120
  1.35764742E+00 -1.94761293E-01  9.13141603E-01  9.36772325E-31 -1.95674482E-31
  1.90319938E-01 -2.94194954E-01 -9.62641683E-02 -2.58844985E-31  5.47936912E-01
 -1.89016472E-01 -2.87556036E-01 -1.29807678E-31 -5.27075814E-02  8.00335217E-01
 -4.56060211E-31 -6.16297582E-33 -5.10244003E-02  1.72563323E-31 -2.46519033E-32
  3.02172795E-02 -9.52725093E-01  2.52750700E-01 -6.50193949E-31 -8.34088171E-02
 -1.35667840E-02  3.27408091E-31  1.05248158E+00  2.45545047E-01 -1.96113937E-01
  3.49748878E-31 -4.26938384E-02  2.40049736E-02 -4.02519358E-32 -2.54356043E-01
  1.61201884E-01 -3.69778549E-31  1.78726299E-31 -6.91327805E-02  9.86076132E-32
  8.47409176E-32  2.35685690E-02  2.95822839E-31 -2.46519033E-31  2.66442769E-02
  1.26728265E-02 -7.15141836E-02  3.41371083E-32 -1.90223853E-01  2.83984522E-01
 -3.42815530E-32  3.88769437E-03  5.87062261E-03 -1.05926147E-32  1.79951736E-01
  3.39260466E-02 -4.51880932E-02 -2.14259706E-32  1.78988436E-01 -5.12684727E-01
  9.97631711E-32  7.32940006E-03  9.34150155E-03  7.65557153E-33 -2.13975362E-01
  5.50307532E-01 -9.24446373E-33  1.84889275E-32 -1.35390390E-03 -1.84889275E-32
  7.39557099E-32 -1.33931222E-02  2.00296714E-32 -3.08148791E-33 -3.69562283E-03
  6.16297582E-33 -8.01186857E-32  1.14517227E-02 -1.23400200E-01  1.09788945E-01
  3.08148791E-32  1.98907125E-02 -2.86936847E-02  3.46667390E-33 -2.02353624E-02
  4.56342123E-02 -2.31111593E-33 -6.28840389E-03 -6.26852097E-03 -2.88889492E-33
  1.30033254E-01  1.04306672E-01 -3.84283537E-01  5.46964104E-32  1.26771521E-02
 -2.40994285E-02 -6.78890305E-33  7.84272690E-03  1.56557764E-03 -1.77185555E-32
 -4.36559935E-03 -1.77621363E-03 -7.22223729E-34 -1.20460952E-01  4.08593601E-01
 -3.38963670E-32  4.00593428E-32 -6.88088534E-02  2.31111593E-32  2.61926472E-32
  1.06316741E-02  3.54371110E-32 -3.69778549E-32  2.26155575E-02  3.85185989E-34
 -3.85185989E-34  6.99092625E-03 -2.46519033E-32 -1.84889275E-32  2.85706956E-02
Dipole Moment                              R   N=           3
 -2.35119775E-01 -7.24717518E-02  0.00000000E+00
Dipole Derivatives                         R   N=          45
  9.47771322E-01  3.98586201E-01  2.95822839E-31  3.52496756E-01  9.35727670E-01
  2.46519033E-32 -2.58844985E-31 -3.01985815E-31  3.10963779E-01 -5.23944396E-01
 -2.76196686E-01 -1.72563323E-31 -4.96615650E-01 -4.46322006E-01 -4.93038066E-32
  1.84889275E-31  2.15704154E-31 -3.86309808E-01 -5.60365105E-01 -2.12777007E-01
 -2.71170936E-31  7.29710470E-02 -4.82055610E-01  4.46815747E-32  2.46519033E-32
  2.23407874E-31 -2.78120714E-01  1.01516288E-01  1.36014514E-01  1.23259516E-32
  1.29713374E-01  8.44137426E-03 -3.69778549E-32  4.93038066E-32 -9.55261252E-32
  2.98253154E-01  3.50218921E-02 -4.56270224E-02  6.16297582E-33 -5.85655268E-02
 -1.57914284E-02 -9.24446373E-33  3.08148791E-33 -1.61778115E-32  5.52135891E-02
Polarizability                             R   N=           6
  1.21639964E+01 -2.05147648E-01  1.11859503E+01 -3.94430453E-31  6.90253292E-31
  2.46573309E+00
HyperPolarizability                        R   N=          10
  6.03547374E+00  1.19693772E+01  6.73900473E+00 -3.07601836E-01  9.86076132E-32
 -9.86076132E-31 -4.00593428E-31 -2.94742869E+00 -9.67793662E-01  1.97215226E-31
